# LAMMPS data file written by OVITO Basic 3.8.0

390 atoms
3 atom types

0.0 14.3208 xlo xhi
0.0 12.402 ylo yhi
0.0 30.0 zlo zhi
-7.1604 0.0 0.0 xy xz yz

Atoms  # atomic

1 3 -5.887 10.24 3.36801
2 3 4.55899 10.749 3.192
3 3 6.689 11.267 4.59501
4 3 12.203 2.27 4.56099
5 3 10.185 1.208 3.32799
6 3 8.54299 4.23 3.40101
7 3 4.882 4.13699 3.32199
8 3 4.902 2.243 4.91901
9 3 6.459 5.074 4.674
10 3 6.747 7.32101 3.28299
11 3 8.398 2.168 4.77501
12 3 8.546 8.328 4.842
13 3 0.964993 4.554 3.18399
14 3 10.265 5.789 4.881
15 3 3.17 5.19901 4.83201
16 3 3.631 1.36 3.0
17 2 10.276 3.074 4.086
18 2 8.50401 0.146 4.128
19 2 12.011 0.101 4.45101
20 2 6.707 3.241 4.11501
21 2 5.00501 6.333 4.203
22 2 3.255 3.15 4.13199
23 2 8.28901 6.178 4.41099
24 2 4.716 0.011 4.35201
25 2 -5.9224 12.3452 4.30101
26 2 6.76099 9.277 4.17201
27 1 5.263 0.194999 3.48801
28 1 1.366 0.907 3.93801
29 1 2.26299 2.873 3.999
30 1 12.405 0.387 3.53301
31 1 7.752 0.664 3.633
32 1 10.214 3.642 4.95399
33 1 8.726 6.43501 3.504
34 1 4.082 6.776 4.01601
35 1 5.907 9.134 3.60099
36 1 6.59099 2.21801 3.96801
37 3 -2.423 4.292 3.39501
38 3 1.25701 10.514 3.378
39 3 2.88301 11.607 4.75701
40 3 -2.163 10.336 3.30999
41 3 -4.15 11.275 4.404
42 3 -0.472995 11.904 4.84101
43 3 1.67099 8.282 4.73601
44 3 -0.719004 5.334 4.725
45 3 -2.37899 8.357 4.848
46 3 4.806 8.329 4.992
47 3 -0.545007 7.37801 3.384
48 2 3.209 9.607 4.278
49 2 -0.383003 9.329 4.089
50 2 1.14199 6.22901 4.39101
51 2 -2.243 6.358 4.125
52 2 -0.520998 3.418 4.13001
53 2 -4.058 9.42 4.104
54 1 1.698 6.509 3.558
55 1 -3.008 6.88201 3.65601
56 1 -0.703001 9.529 5.05599
57 1 -0.0529998 2.496 4.01901
58 1 -4.069 8.42401 3.816
59 1 3.383 8.778 3.67101
60 3 2.72872 6.83253 15.7861
61 2 -1.47269 8.13779 16.9438
62 1 -1.87404 9.06363 16.588
63 3 -1.59053 10.482 12.9976
64 3 3.21475 0.96699 16.6606
65 3 1.38595 8.00807 10.3483
66 3 5.06402 2.13243 18.9222
67 3 8.31142 3.65558 18.8873
68 3 -0.96074 7.5308 12.8944
69 3 8.86751 6.52307 17.0912
70 1 2.35585 1.11938 10.6087
71 3 -2.18063 10.398 6.15153
72 3 6.33298 6.92995 24.6299
73 3 9.98497 3.07408 6.62741
74 3 9.92748 1.33898 8.21946
75 3 7.34221 4.60126 22.5432
76 1 10.1505 0.50457 21.3648
77 2 3.40863 1.255 10.7337
78 2 -0.499245 1.1541 10.1921
79 2 1.37534 0.454215 14.0252
80 2 5.29263 -0.037914 13.78
81 2 3.50734 3.36638 13.8738
82 2 -0.198008 1.33666 19.9791
83 2 1.7869 2.24431 16.6136
84 2 -0.0407025 3.45482 13.8185
85 2 10.5054 5.71423 17.4841
86 1 0.401054 1.50603 10.4487
87 1 3.45289 2.10263 11.4306
88 1 -2.77153 11.986 13.7416
89 1 1.63493 0.470705 13.0423
90 1 3.2483 3.43442 12.8735
91 1 -0.845346 3.23265 13.1907
92 1 1.6418 3.21574 17.0445
93 1 10.1263 4.72898 17.2917
94 1 0.535658 1.87108 20.4759
95 3 2.4448 9.03445 18.8644
96 3 7.01312 0.64964 13.3379
97 3 8.4371 4.10396 7.90069
98 3 10.7944 5.54905 10.3344
99 3 12.3157 0.283023 11.4229
100 3 7.29788 9.91372 15.9886
101 3 3.16603 9.95684 20.9908
102 3 2.9372 11.5791 10.33
103 3 1.66739 2.46294 14.4512
104 3 12.3683 2.92448 14.3261
105 3 -3.78176 7.64816 17.8991
106 3 -5.84256 11.9767 6.46478
107 3 12.8269 0.284029 15.3765
108 3 1.572 6.33501 6.36628
109 3 -0.206761 2.72494 16.031
110 3 0.0463149 9.4555 17.0955
111 3 8.87694 0.339244 16.181
112 3 -5.31294 10.9117 14.0284
113 3 8.97349 4.39792 12.953
114 3 5.18935 6.34 21.3105
115 3 0.249298 11.12 14.4897
116 3 3.52987 5.19336 14.4664
117 3 -0.707359 5.58662 10.6894
118 1 3.95617 12.0224 16.7017
119 3 5.55529 4.97509 24.1617
120 3 -1.84718 8.90741 18.7996
121 1 6.29639 6.06632 13.2147
122 3 4.51089 6.10158 6.54329
123 2 6.62027 11.4567 7.00414
124 2 7.47542 9.64892 13.8097
125 2 4.65964 10.4807 10.641
126 2 6.9087 7.18304 10.6751
127 2 8.52909 6.30726 13.6456
128 2 5.32785 6.19338 13.674
129 2 -0.194824 5.19488 17.1282
130 2 6.94671 12.0704 17.1411
131 2 1.99923 8.47513 16.8336
132 2 3.80329 9.358 13.5569
133 2 8.39371 8.50158 16.9289
134 2 2.22547 10.7724 19.4108
135 2 3.01016 9.80528 23.4533
136 1 5.72894 11.5332 7.44641
137 1 5.26244 9.64645 10.3332
138 1 6.37411 7.71801 11.4058
139 1 7.70983 6.13045 14.2315
140 1 -0.0116852 5.40849 18.1042
141 1 0.695165 4.60706 16.9062
142 1 3.54427 10.217 14.0072
143 1 8.80278 8.97089 17.8184
144 1 2.06314 9.32228 23.1835
145 1 2.62175 7.85704 17.5668
146 1 5.72366 6.38936 14.6545
147 1 6.42589 11.2225 17.5268
148 1 1.86671 11.7105 19.8596
149 3 3.05752 1.32498 7.97903
150 3 8.36997 5.11756 6.11364
151 3 0.301642 0.831176 8.17787
152 3 11.4529 3.14225 9.06714
153 3 10.5854 3.08573 20.5428
154 3 4.08814 8.65504 24.7676
155 3 -3.65468 11.8139 19.4658
156 3 7.92861 2.44536 9.45076
157 3 -2.51167 7.86055 9.35611
158 3 3.26109 3.42616 15.7611
159 2 12.5633 0.51066 13.2346
160 2 4.04551 10.9369 16.8572
161 2 8.89045 0.232587 13.7547
162 2 10.5567 3.15645 13.3805
163 2 10.386 1.0567 10.5039
164 1 9.60789 1.75797 10.7956
165 1 11.8506 0.112418 13.8365
166 1 2.4173 11.867 13.9004
167 1 10.2344 3.64208 14.2224
168 1 5.08608 10.6554 16.5939
169 3 -0.433775 3.15943 11.1101
170 3 3.38294 9.28471 11.3752
171 3 6.93307 11.4797 19.5409
172 3 5.01997 8.57497 20.8008
173 3 6.69041 4.90841 10.5141
174 1 8.3798 7.34772 7.15125
175 3 7.32836 3.0812 15.6656
176 3 11.2048 0.861032 6.08777
177 1 2.37191 7.44786 20.1122
178 2 -5.69068 10.6254 10.5542
179 2 -3.68442 9.79692 14.4198
180 2 -3.88552 11.4493 17.0479
181 2 12.2832 1.95432 16.3913
182 2 5.24755 10.3892 20.9288
183 1 -5.7332 11.6811 10.5956
184 1 -3.50728 9.25972 13.5881
185 1 12.1525 2.91904 16.5647
186 1 -3.26431 10.7139 17.3092
187 1 5.09067 11.308 21.3736
188 3 8.62358 0.25514 6.42794
189 3 9.9268 7.13096 7.9205
190 3 -2.65684 10.4681 8.67664
191 3 4.7028 0.265549 6.41376
192 3 -0.2233 1.37984 13.597
193 3 6.815 11.6231 10.1325
194 3 4.83602 6.07384 10.7127
195 3 2.78738 9.62121 6.24665
196 1 4.13853 7.90789 7.77235
197 3 -2.63084 6.28764 20.8141
198 3 7.47816 9.88215 11.9254
199 3 6.24289 0.795559 15.447
200 3 10.6788 1.27382 13.0507
201 1 6.16555 5.03552 7.85108
202 3 3.65831 7.1583 13.1128
203 3 -2.16704 6.15152 6.23367
204 3 6.72528 3.20053 6.38863
205 1 1.47132 3.0523 7.62017
206 2 6.86864 5.58047 7.39313
207 2 4.65252 2.15592 6.90873
208 2 8.47178 2.23785 7.58206
209 1 7.71397 1.58115 7.60187
210 1 5.46598 1.80437 7.47934
211 1 6.88685 6.44392 7.99167
212 3 4.62537 10.2107 8.4872
213 3 -1.34351 3.63321 6.14687
214 3 12.5206 0.785305 20.9853
215 3 11.1714 3.01994 11.6369
216 3 -2.70511 10.9793 15.2989
217 3 8.89731 8.31593 20.0136
218 2 0.274915 11.4764 16.9401
219 2 6.84656 1.57257 19.6299
220 2 -1.73272 10.9201 19.5684
221 1 -0.532579 10.9842 16.313
222 1 7.7181 1.17374 19.4186
223 1 -1.34602 10.1694 20.242
224 3 10.1562 5.62338 14.5407
225 3 2.03773 10.5675 17.4092
226 2 8.91994 2.29409 17.166
227 1 9.68655 2.72176 16.6209
228 3 -2.22036 8.12982 15.143
229 1 7.52535 8.5973 13.6246
230 3 -2.10808 4.74277 18.3324
231 3 -4.45546 9.62084 16.2852
232 3 -3.91287 9.46154 11.107
233 3 -0.080529 11.4387 10.2088
234 3 -0.56702 9.50782 11.3127
235 3 7.1026 9.65018 20.6481
236 3 -0.215043 6.70695 8.51313
237 3 -3.36944 10.0714 20.2844
238 3 8.49337 1.97913 21.0125
239 3 0.393365 5.22248 14.7696
240 3 5.24366 2.38399 14.2569
241 3 12.9332 0.854074 17.7979
242 3 6.59678 3.50161 20.6985
243 3 3.43778 9.30436 15.7061
244 3 0.637918 4.07987 6.18689
245 3 6.88773 5.76823 19.6812
246 3 4.75266 10.8249 12.6303
247 2 7.26951 3.3785 13.5701
248 2 3.85182 5.37975 16.5663
249 2 8.6418 3.94706 20.8224
250 2 10.3858 1.18683 20.6339
251 2 6.09546 8.8781 23.981
252 2 7.69652 5.40636 24.3424
253 2 -5.54691 10.8204 20.0999
254 2 5.63971 2.29398 16.6667
255 2 6.87639 7.76366 20.5181
256 2 5.30565 4.83245 20.2294
257 2 -3.36986 8.09822 20.0473
258 2 7.0892 5.74597 17.6439
259 2 -2.29652 4.39552 20.2465
260 2 3.35928 7.67444 19.8908
261 1 7.34842 4.4544 13.6414
262 1 10.121 0.734619 19.738
263 1 4.80209 2.256 16.0598
264 1 9.07708 4.7372 21.4301
265 1 -5.78319 10.6277 21.1125
266 1 3.59434 6.75908 19.4546
267 1 -3.76709 7.95617 20.9448
268 1 4.24383 4.78629 19.9399
269 1 6.31465 6.23172 17.1689
270 1 4.49614 6.1926 16.661
271 1 8.14637 6.37275 24.245
272 1 7.00587 7.06873 21.2481
273 1 6.68824 8.74448 23.2055
274 1 -2.23848 4.14878 21.4087
275 3 -4.38297 9.27879 6.65149
276 1 13.0652 1.94724 10.089
277 3 5.31364 4.23037 17.0835
278 1 8.05044 5.19436 25.1952
279 1 6.47895 7.67738 9.8922
280 3 6.81987 7.12324 5.4357
281 3 8.62302 8.69697 10.0428
282 3 9.8988 5.32367 19.3319
283 3 7.04851 7.74598 18.5411
284 1 1.77288 8.39661 7.72802
285 3 -0.873111 3.1514 19.8708
286 3 1.89084 10.1045 12.7123
287 3 7.3698 9.73544 6.09561
288 3 -1.85666 12.2419 11.6681
289 1 3.12144 5.4886 17.313
290 3 2.82016 6.39464 8.82393
291 3 -3.97186 11.6219 11.0268
292 3 0.341226 7.23186 16.8733
293 3 0.692354 1.10186 18.327
294 3 -5.26839 10.7672 8.52064
295 3 0.307193 10.9863 19.0329
296 3 1.07006 0.756422 15.8466
297 1 8.92198 5.15706 9.3706
298 3 6.89127 2.74992 11.7257
299 3 7.03552 1.72145 17.5888
300 3 8.4757 6.3835 11.4797
301 3 -4.01129 7.32212 13.0565
302 3 5.70024 0.204164 20.2757
303 3 1.49514 8.54708 14.6606
304 3 2.56195 1.27321 5.18217
305 3 1.2449 0.204246 20.8005
306 3 6.91785 11.5377 13.5168
307 3 4.11287 11.0864 19.077
308 1 2.92166 10.8598 23.3629
309 3 4.97235 10.1434 23.1241
310 3 -5.5798 11.261 17.8397
311 3 4.6887 10.7751 5.95848
312 3 5.68141 8.76617 13.8777
313 1 -0.364131 11.7309 7.89606
314 1 6.79715 9.49586 24.4449
315 3 3.33411 3.49627 6.37002
316 3 2.19629 6.1084 11.471
317 3 -2.18506 6.23515 16.6715
318 3 -0.525942 0.956792 5.23305
319 3 1.33069 4.39589 12.5346
320 3 8.43426 8.23544 14.9781
321 3 4.45105 3.83168 8.50048
322 2 2.98535 5.22969 7.2079
323 2 3.1967 7.3592 10.5647
324 2 1.11155 8.34542 6.97976
325 2 -0.564481 5.42427 6.80524
326 2 4.44146 8.6907 7.09434
327 2 1.35503 2.1437 7.22168
328 2 1.07988 4.25929 10.7614
329 2 5.0045 4.00635 10.5076
330 2 3.18515 11.8333 7.14316
331 2 -0.416675 7.51233 10.3645
332 2 -2.72479 8.59118 7.29812
333 2 0.17336 9.46639 13.5198
334 2 -2.16933 10.5106 10.5827
335 2 1.46689 10.3404 10.819
336 2 -0.485816 11.4018 6.90649
337 2 -4.06083 11.4169 7.32147
338 2 -2.07446 4.28003 10.7133
339 2 -2.55331 6.41036 13.9691
340 2 1.9796 6.31141 13.701
341 1 0.68782 2.34123 6.41199
342 1 -0.327614 4.68594 7.56354
343 1 -1.87814 8.6043 7.7524
344 1 -3.25826 11.895 7.80487
345 1 -2.1198 4.67268 9.72009
346 1 5.47063 8.72368 7.05134
347 1 0.609894 9.21609 7.08649
348 1 2.34864 11.5643 7.77545
349 1 2.06348 4.83213 7.89021
350 1 4.50533 4.21068 11.4374
351 1 0.764692 4.47069 9.79942
352 1 4.0862 7.84394 10.3905
353 1 0.113857 10.6047 6.83035
354 1 1.19418 9.83822 9.95312
355 1 -2.18878 9.44257 10.6156
356 1 -0.622449 8.31326 9.68367
357 1 1.24264 6.82748 13.205
358 1 -1.62934 5.95127 14.1329
359 1 -0.214008 9.23236 14.5979
360 3 12.0219 0.471223 8.77122
361 3 -2.58865 4.86976 12.6033
362 3 -1.82784 11.669 17.8026
363 3 5.05948 1.99868 10.0191
364 3 8.63437 2.25393 13.5775
365 1 11.457 1.49709 16.106
366 3 1.71212 12.0603 11.723
367 3 5.30531 4.28078 13.2439
368 3 -0.272132 7.71755 5.64627
369 3 2.83284 3.7158 10.3956
370 2 11.6395 2.26025 7.27456
371 2 -4.19085 7.52996 10.5655
372 2 8.22769 8.458 7.34522
373 2 9.92767 5.13161 6.94284
374 2 8.56043 4.41403 10.0177
375 1 12.5475 1.90197 7.558
376 1 7.73409 8.19841 8.24829
377 1 10.8701 4.82843 7.29511
378 1 9.31123 3.67601 10.0599
379 1 -3.24316 7.60425 11.0066
380 3 3.3325 1.21837 13.6566
381 2 6.7508 1.29279 10.7891
382 1 7.8129 1.14949 10.5872
383 2 3.59529 1.4582 20.1706
384 1 3.29548 2.46539 20.0996
385 1 9.33878 1.88799 17.9658
386 1 4.15726 1.37712 21.0912
387 2 4.59944 6.31363 24.9175
388 1 3.82088 6.54302 24.1743
389 1 7.49187 5.27868 16.8384
390 1 4.14522 6.42628 25.8146
