LAMMPS data file 
256 atoms
3 atom types
0 14.266 xlo xhi
0 10.187 ylo yhi
0 14.266 zlo zhi

Atoms 

128 3 5.337269126 6.2420283918 2.618912649
1 3 1.7690774186 3.8311759014 2.6188708808
2 3 1.7691123768 1.1573072612 6.1869753744
3 3 5.337311501 8.9136785863 6.186984635
4 3 5.3358485397 1.1816100473 2.6208954079
5 3 1.7704500233 8.8920284849 2.6208861338
6 3 1.7704848767 6.269522643 6.1847509086
7 3 5.3357916821 3.8008245703 6.1847223172
8 3 5.3374026059 9.0399175066 2.6218649834
9 3 1.770024768 1.0329879549 2.6218930298
10 3 1.7700260753 3.9525666862 6.1856780559
11 3 5.3374108428 6.1187131189 6.1856598534
12 3 5.3370748589 7.5764981785 0.8381637335
13 3 1.7682534572 2.4955498126 0.8381623988
14 3 1.7682877781 2.499944426 4.4068895509
15 3 5.3370732007 7.5721559636 4.4068685831
16 3 0.0322856302 8.9610056713 0.9768664195
17 3 7.0691399746 1.1116130918 0.976206959
18 3 3.5070063386 8.9606835085 0.9769053318
19 3 3.6002229086 1.1126651969 0.9762143686
20 3 3.6031405814 3.8665232955 4.5411201907
21 3 3.5041537784 6.2040621257 4.5419432721
22 3 7.066314795 3.8675783566 4.541185471
23 3 0.0351850283 6.2037804367 4.5417923279
24 3 0.0350359497 6.2045958388 0.6958058124
25 3 7.0664862249 3.8667571172 0.6964001268
26 3 3.5043418506 6.2048871415 0.6956488436
27 3 3.6029789344 3.8656932357 0.6964616463
28 3 3.5983908948 1.1123491176 4.2634806275
29 3 3.5088426953 8.9610148553 4.2627890399
30 3 7.070969161 1.1112919121 4.2634956495
31 3 0.0304320852 8.96134087 4.2628492842
32 2 5.3361558785 10.0343900173 4.3186491416
33 2 1.7696446389 0.0367236563 4.3180620213
34 2 1.7696648922 4.9390815385 0.7510771863
35 2 5.3361414609 5.1339199976 0.7516326385
36 2 5.3361593234 10.0323590843 0.9226922144
37 2 1.7696590542 0.0387850565 0.9232952164
38 2 1.7696431274 4.9387704907 4.4858138526
39 2 5.3361376946 5.134212881 4.4852427866
40 2 6.8874068346 7.6894490733 2.6193702502
41 2 0.2212922465 2.3824181151 2.619366787
42 2 3.7874406478 7.6899417483 2.6193694909
43 2 3.3207025221 2.3835139018 2.619367213
44 2 3.3244912091 2.6048405037 6.1845540355
45 2 3.7836183085 7.4658248161 6.1845725399
46 2 0.2176275212 2.6060023965 6.1845581083
47 2 6.8912334624 7.4662577313 6.1845730703
48 1 5.3368393158 4.5375204275 1.6013129892
49 1 1.7724206463 5.5362611342 1.600228148
50 1 1.7724042693 9.6351592521 5.1726293967
51 1 5.3368778963 0.4351679723 5.1737295388
52 1 5.3368300825 4.5357181726 3.6370205765
53 1 1.7723338203 5.5380532247 3.6381317296
54 1 1.7723566925 9.6349467518 0.0702637743
55 1 5.336861487 0.4354158008 0.069149406
56 1 0.5610489997 8.1158250015 6.1831410563
57 1 6.5378609126 1.9531324128 6.183171281
58 1 2.9776126229 8.1194741995 6.1831673836
59 1 4.1315543143 1.9524117 6.1831700978
60 1 4.1265343757 3.037445733 2.6199703737
61 1 2.9827436742 7.0347123186 2.6199722147
62 1 6.5429248484 3.0366680355 2.619970267
63 1 0.555992601 7.0380490008 2.6200182362
64 3 12.4669376479 6.2408253525 2.6188681552
65 3 8.8987412356 3.8299786538 2.6189178314
66 3 8.898693751 1.158324804 6.1869882075
67 3 12.466898115 8.9146979206 6.1869731276
68 3 12.4655847195 1.1799662955 2.6208861097
69 3 8.9002009146 8.8903864041 2.6208974435
70 3 8.9002715014 6.2711804519 6.1847218561
71 3 12.4655603605 3.8024834092 6.1847513983
72 3 12.4659782422 9.0390036089 2.621896337
73 3 8.8985907524 1.0320741912 2.6218618196
74 3 8.8985903258 3.9532915494 6.1856583071
75 3 12.4659864913 6.1194351644 6.1856803883
76 3 12.4677842236 7.5764572477 0.8381629387
77 3 8.8989551664 2.4955111844 0.8381653418
78 3 8.8989514282 2.4998254081 4.4068690209
79 3 12.467749923 7.5720359464 4.4068912869
80 3 7.1668539201 8.9603887699 0.9762218959
81 3 14.2037063688 1.1110036646 0.9768558666
82 3 10.6357818112 8.9593099078 0.9761950305
83 3 10.7289839286 1.1112911831 0.9769221376
84 3 10.7318366157 3.8679386411 4.5419538097
85 3 10.6328687036 6.2054773117 4.5411042733
86 3 14.2008278186 3.8681901081 4.5417764959
87 3 7.1696969831 6.2043998183 4.5412059958
88 3 7.1695245623 6.2052199626 0.6963750279
89 3 14.200974291 3.8673792524 0.6958235201
90 3 10.6330338464 6.2063060334 0.6964720411
91 3 10.731655681 3.8671141872 0.6956420983
92 3 10.7271460866 1.1109582744 4.2627705528
93 3 10.637613471 8.9596230165 4.2635005058
94 3 14.2055544341 1.1106672055 4.262856771
95 3 7.1650170562 8.9607100889 4.2634856716
96 2 12.4663487014 10.0352853642 4.3180625705
97 2 8.8998380476 0.0376182169 4.3186479297
98 2 8.899861434 4.9380880735 0.7516333955
99 2 12.4663371385 5.1329266252 0.7510760044
100 2 12.4663356571 10.0332194794 0.9232955128
101 2 8.8998362331 0.0396437231 0.9226925583
102 2 8.899863871 4.9377985689 4.4852424953
103 2 12.4663574624 5.1332398321 4.4858147666
104 2 14.0146869897 7.6895835999 2.6193678135
105 2 7.3485692179 2.3825537791 2.6193693588
106 2 10.9152842405 7.6884869065 2.6193675904
107 2 10.4485350355 2.3820596633 2.6193686242
108 2 10.45235671 2.6061772421 6.1845735818
109 2 10.91149244 7.4671598248 6.1845531718
110 2 7.344746598 2.6057458744 6.1845736121
111 2 14.0183566219 7.4660013586 6.1845568234
112 1 12.4635703443 4.5357442512 1.6002244034
113 1 8.8991519595 5.5344906273 1.6013119934
114 1 8.8991078761 9.6368382583 5.173726375
115 1 12.4635801329 0.4368523274 5.1726288275
116 1 12.4636559679 4.533952086 3.6381366679
117 1 8.8991601511 5.5362931937 3.6370197913
118 1 8.8991257538 9.636588078 0.0691499189
119 1 12.4636294074 0.4370617892 0.0702666124
120 1 7.6981229835 8.1188654877 6.1831701358
121 1 13.6749380908 1.9561740909 6.1831426459
122 1 10.1044378323 8.1196005698 6.1831690928
123 1 11.2583729696 1.9525420047 6.1831675672
124 1 11.253237965 3.037281352 2.6199741052
125 1 10.1094525726 7.034554499 2.6199676956
126 1 13.6799969092 3.0339667396 2.6200179754
127 1 7.6930609654 7.035348045 2.6199682309
256 3 5.337269126 6.2420283918 9.751912649
129 3 1.7690774186 3.8311759014 9.7518708808
130 3 1.7691123768 1.1573072612 13.3199753744
131 3 5.337311501 8.9136785863 13.319984635
132 3 5.3358485397 1.1816100473 9.7538954079
133 3 1.7704500233 8.8920284849 9.7538861338
134 3 1.7704848767 6.269522643 13.3177509086
135 3 5.3357916821 3.8008245703 13.317722317200001
136 3 5.3374026059 9.0399175066 9.754864983400001
137 3 1.770024768 1.0329879549 9.7548930298
138 3 1.7700260753 3.9525666862 13.318678055900001
139 3 5.3374108428 6.1187131189 13.3186598534
140 3 5.3370748589 7.5764981785 7.9711637335
141 3 1.7682534572 2.4955498126 7.9711623988
142 3 1.7682877781 2.499944426 11.5398895509
143 3 5.3370732007 7.5721559636 11.539868583099999
144 3 0.0322856302 8.9610056713 8.1098664195
145 3 7.0691399746 1.1116130918 8.109206959
146 3 3.5070063386 8.9606835085 8.1099053318
147 3 3.6002229086 1.1126651969 8.1092143686
148 3 3.6031405814 3.8665232955 11.6741201907
149 3 3.5041537784 6.2040621257 11.6749432721
150 3 7.066314795 3.8675783566 11.674185471000001
151 3 0.0351850283 6.2037804367 11.6747923279
152 3 0.0350359497 6.2045958388 7.8288058124
153 3 7.0664862249 3.8667571172 7.8294001267999995
154 3 3.5043418506 6.2048871415 7.8286488436
155 3 3.6029789344 3.8656932357 7.8294616463
156 3 3.5983908948 1.1123491176 11.3964806275
157 3 3.5088426953 8.9610148553 11.3957890399
158 3 7.070969161 1.1112919121 11.3964956495
159 3 0.0304320852 8.96134087 11.3958492842
160 2 5.3361558785 10.0343900173 11.4516491416
161 2 1.7696446389 0.0367236563 11.4510620213
162 2 1.7696648922 4.9390815385 7.8840771863
163 2 5.3361414609 5.1339199976 7.8846326385
164 2 5.3361593234 10.0323590843 8.0556922144
165 2 1.7696590542 0.0387850565 8.0562952164
166 2 1.7696431274 4.9387704907 11.618813852599999
167 2 5.3361376946 5.134212881 11.6182427866
168 2 6.8874068346 7.6894490733 9.7523702502
169 2 0.2212922465 2.3824181151 9.752366787
170 2 3.7874406478 7.6899417483 9.7523694909
171 2 3.3207025221 2.3835139018 9.752367213
172 2 3.3244912091 2.6048405037 13.317554035499999
173 2 3.7836183085 7.4658248161 13.3175725399
174 2 0.2176275212 2.6060023965 13.3175581083
175 2 6.8912334624 7.4662577313 13.3175730703
176 1 5.3368393158 4.5375204275 8.7343129892
177 1 1.7724206463 5.5362611342 8.733228148
178 1 1.7724042693 9.6351592521 12.305629396699999
179 1 5.3368778963 0.4351679723 12.306729538799999
180 1 5.3368300825 4.5357181726 10.7700205765
181 1 1.7723338203 5.5380532247 10.7711317296
182 1 1.7723566925 9.6349467518 7.2032637743
183 1 5.336861487 0.4354158008 7.202149406
184 1 0.5610489997 8.1158250015 13.316141056300001
185 1 6.5378609126 1.9531324128 13.316171280999999
186 1 2.9776126229 8.1194741995 13.3161673836
187 1 4.1315543143 1.9524117 13.3161700978
188 1 4.1265343757 3.037445733 9.7529703737
189 1 2.9827436742 7.0347123186 9.7529722147
190 1 6.5429248484 3.0366680355 9.752970267
191 1 0.555992601 7.0380490008 9.753018236199999
192 3 12.4669376479 6.2408253525 9.7518681552
193 3 8.8987412356 3.8299786538 9.7519178314
194 3 8.898693751 1.158324804 13.3199882075
195 3 12.466898115 8.9146979206 13.3199731276
196 3 12.4655847195 1.1799662955 9.7538861097
197 3 8.9002009146 8.8903864041 9.7538974435
198 3 8.9002715014 6.2711804519 13.3177218561
199 3 12.4655603605 3.8024834092 13.3177513983
200 3 12.4659782422 9.0390036089 9.754896337
201 3 8.8985907524 1.0320741912 9.7548618196
202 3 8.8985903258 3.9532915494 13.3186583071
203 3 12.4659864913 6.1194351644 13.318680388299999
204 3 12.4677842236 7.5764572477 7.9711629387
205 3 8.8989551664 2.4955111844 7.9711653418
206 3 8.8989514282 2.4998254081 11.5398690209
207 3 12.467749923 7.5720359464 11.5398912869
208 3 7.1668539201 8.9603887699 8.1092218959
209 3 14.2037063688 1.1110036646 8.1098558666
210 3 10.6357818112 8.9593099078 8.1091950305
211 3 10.7289839286 1.1112911831 8.1099221376
212 3 10.7318366157 3.8679386411 11.6749538097
213 3 10.6328687036 6.2054773117 11.6741042733
214 3 14.2008278186 3.8681901081 11.6747764959
215 3 7.1696969831 6.2043998183 11.674205995800001
216 3 7.1695245623 6.2052199626 7.8293750279
217 3 14.200974291 3.8673792524 7.8288235201
218 3 10.6330338464 6.2063060334 7.8294720411
219 3 10.731655681 3.8671141872 7.8286420983
220 3 10.7271460866 1.1109582744 11.3957705528
221 3 10.637613471 8.9596230165 11.396500505799999
222 3 14.2055544341 1.1106672055 11.395856771
223 3 7.1650170562 8.9607100889 11.3964856716
224 2 12.4663487014 10.0352853642 11.4510625705
225 2 8.8998380476 0.0376182169 11.4516479297
226 2 8.899861434 4.9380880735 7.8846333955
227 2 12.4663371385 5.1329266252 7.8840760044
228 2 12.4663356571 10.0332194794 8.0562955128
229 2 8.8998362331 0.0396437231 8.0556925583
230 2 8.899863871 4.9377985689 11.618242495299999
231 2 12.4663574624 5.1332398321 11.6188147666
232 2 14.0146869897 7.6895835999 9.7523678135
233 2 7.3485692179 2.3825537791 9.7523693588
234 2 10.9152842405 7.6884869065 9.7523675904
235 2 10.4485350355 2.3820596633 9.752368624199999
236 2 10.45235671 2.6061772421 13.3175735818
237 2 10.91149244 7.4671598248 13.3175531718
238 2 7.344746598 2.6057458744 13.3175736121
239 2 14.0183566219 7.4660013586 13.3175568234
240 1 12.4635703443 4.5357442512 8.7332244034
241 1 8.8991519595 5.5344906273 8.7343119934
242 1 8.8991078761 9.6368382583 12.306726375
243 1 12.4635801329 0.4368523274 12.3056288275
244 1 12.4636559679 4.533952086 10.7711366679
245 1 8.8991601511 5.5362931937 10.770019791300001
246 1 8.8991257538 9.636588078 7.2021499189
247 1 12.4636294074 0.4370617892 7.2032666124
248 1 7.6981229835 8.1188654877 13.3161701358
249 1 13.6749380908 1.9561740909 13.316142645900001
250 1 10.1044378323 8.1196005698 13.3161690928
251 1 11.2583729696 1.9525420047 13.3161675672
252 1 11.253237965 3.037281352 9.7529741052
253 1 10.1094525726 7.034554499 9.7529676956
254 1 13.6799969092 3.0339667396 9.7530179754
255 1 7.6930609654 7.035348045 9.7529682309
