LAMMPS data file 
1024 atoms 
3 atom types 
0.0 20.028 xlo xhi 
0.0 20.028 ylo yhi 
0.0 20.028 zlo zhi 
Atoms 
 
1 3 10.509 10.4967 16.767599
2 3 10.8355 0.192799 13.7594
3 3 5.48796 15.6477 11.9635
4 3 2.56364 7.69792 2.00868
5 3 8.5131 7.35969 12.4119
6 3 15.0109 13.0574 9.69586
9 3 17.586599 15.0874 17.3776
10 3 17.6264 18.1812 12.1353
12 3 10.3377 7.97157 19.275999
13 3 0.488215 2.97942 19.307301
14 3 15.4099 12.6164 11.7717
15 3 0.616053 15.4571 14.3266
16 3 17.644699 7.91523 12.109
17 3 3.11416 15.5087 18.9049
18 3 12.9579 5.29979 4.30113
19 3 13.074 12.7315 7.12177
20 3 8.05344 5.24825 4.30208
21 3 15.1763 2.82946 19.450399
22 3 0.225028 9.99539 19.698099
24 3 17.7094 2.94007 14.4711
25 3 3.2733 17.998899 6.33065
26 3 19.882601 14.9489 4.44858
28 3 0.057435 10.6833 17.061701
29 3 10.531 0.161275 4.2303
30 3 7.97557 7.96671 1.70041
31 3 15.3406 10.2858 11.8111
32 3 6.31994 11.2133 15.9899
33 3 5.43865 15.4446 16.896799
34 3 6.12287 6.17222 5.4627
35 3 1.69646 19.005501 8.43942
36 3 5.29419 12.9653 2.25989
37 3 12.6599 5.29736 11.6017
38 3 2.7581 12.7178 1.99432
39 3 11.8491 11.61 0.552898
40 3 10.6118 7.68051 6.32549
42 3 19.652599 0.095521 14.6417
43 3 5.22575 12.7765 6.80454
44 3 10.2346 10.4469 14.4273
45 3 13.1266 5.47121 14.3954
46 3 5.37246 0.093344 9.04912
47 3 19.993799 17.705601 9.27498
48 3 5.17529 17.6581 9.1664
49 3 3.24763 17.776501 19.104601
50 3 19.975901 2.48559 12.0529
51 3 0.479396 13.053 7.07025
52 3 12.8375 10.3255 16.8235
53 3 19.8895 17.652201 4.15235
55 3 0.202418 17.9137 1.76821
56 3 17.7253 15.2333 1.96993
57 3 5.34685 5.16259 9.37591
59 3 2.8403 7.90009 6.76534
60 3 12.9245 18.1581 9.53742
61 3 15.6777 6.07914 1.083
62 3 12.5639 3.16265 1.93515
64 3 11.6291 3.91617 13.2079
65 2 1.43148 1.56741 3.08566
66 2 6.69042 1.43563 3.18778
67 2 4.26213 4.25791 3.11818
68 2 4.01441 1.62539 5.60042
69 2 6.73406 1.6443 8.17354
70 2 9.19887 4.27837 8.10572
71 2 6.85005 3.91272 5.70049
72 2 3.84763 4.03558 8.06263
73 2 1.43327 4.36855 5.69776
74 2 1.28879 1.47143 7.92595
75 2 9.23056 1.44944 5.62562
76 2 4.23256 1.64608 0.462574
77 2 6.75851 4.08187 0.661716
78 2 1.93954 3.73665 0.558221
79 2 9.02405 1.76867 0.380507
80 2 9.1835 3.98578 3.15141
81 2 6.62301 6.75238 8.02691
82 2 4.19341 6.6514 5.68431
83 2 9.06937 19.151501 8.09114
84 2 6.70719 19.2173 5.5453
85 2 4.11761 19.24 7.73545
86 2 1.42685 19.185699 5.34419
87 2 1.47753 6.55482 8.09482
88 2 9.11492 6.42799 5.69909
89 2 6.66579 6.38457 3.35134
90 2 3.98402 19.1276 3.05832
91 2 3.99586 6.52886 0.608969
92 2 6.50047 19.1467 0.449813
93 2 1.60939 19.4405 0.464333
94 2 8.93333 6.8511 0.513083
95 2 9.3171 19.250601 2.82565
96 2 1.52505 6.57773 3.01748
97 1 0.981579 1.89674 3.93421
98 1 3.81195 2.68186 5.60457
99 1 2.00448 3.62607 5.27488
100 1 4.38737 4.21988 4.17157
101 1 0.360757 1.01853 8.21333
102 1 4.46221 0.754941 1.03461
103 1 1.08131 4.25798 0.449222
104 1 4.52184 3.57651 8.75323
105 1 1.56946 5.5351 2.91345
106 1 4.29254 5.75481 5.10793
107 1 1.51004 18.178499 5.35497
108 1 4.68642 19.606701 2.52722
109 1 1.21514 6.87899 7.14342
110 1 4.09581 7.59719 0.650138
111 1 2.34682 18.7791 0.810918
112 1 3.85465 9.60627 9.12746
113 1 6.61191 0.961916 2.21651
114 1 10.3682 1.51731 5.70433
115 1 6.07974 3.78633 6.4191
116 1 10.3012 4.10528 3.28984
117 1 6.69395 1.6712 9.24381
118 1 8.03348 2.06978 0.515344
119 1 5.78136 4.1761 0.999386
120 1 9.7414 3.7818 8.7648
121 1 6.44201 7.22353 2.76682
122 1 8.19299 6.88614 5.88506
123 1 6.46841 0.115005 5.28848
124 1 8.03506 9.441 3.31349
125 1 7.32666 6.04496 7.83286
126 1 9.627 6.31866 19.9883
127 1 5.75173 9.162 1.44825
128 1 8.95617 18.9147 9.12793
129 3 10.398 5.46722 4.37639
130 3 15.5505 0.69197 6.50722
131 3 10.5205 5.42721 6.85275
132 3 14.8327 18.048901 14.649
133 3 10.4346 17.8223 9.23956
134 3 8.46157 18.474001 1.11002
135 3 20.018999 3.34318 4.43644
137 3 2.71101 5.36772 4.20048
139 3 7.88662 8.21508 7.0099
141 3 10.0195 3.09676 17.040001
142 3 10.7881 13.1463 2.36236
143 3 17.877501 5.38926 19.4809
144 3 10.4428 12.7533 11.8029
145 3 17.687799 5.55182 9.20298
146 3 11.2186 11.634 5.82693
147 3 3.59681 14.5474 10.9209
148 3 0.142092 8.27135 16.463301
149 3 17.4695 2.74307 12.1121
150 3 5.3435 12.8054 14.0887
151 3 15.0268 8.12232 1.74757
152 3 12.4101 17.5802 1.51466
153 3 10.2551 7.86645 4.21785
155 3 17.767799 10.3974 16.771999
156 3 8.11634 0.790556 9.07882
157 3 7.418 0.245872 17.134501
158 3 7.63738 5.56827 19.353901
159 3 8.62464 0.810641 2.32414
160 3 15.4881 10.2675 14.25
162 3 5.0947 2.88774 12.0651
163 3 5.46152 2.64675 4.72202
164 3 3.44964 15.8934 3.4719
165 3 14.499 17.5028 17.501499
166 3 5.5575 15.4003 19.269199
167 3 12.5777 3.14528 16.8253
168 3 10.2667 18.205601 12.0101
169 3 13.528 11.4526 18.886
170 3 2.52977 7.63328 19.5487
171 3 15.7631 13.5033 18.884501
172 3 5.21612 10.2023 13.8665
173 3 0.486018 8.04351 4.16345
174 3 0.04765 5.2101 12.1237
175 3 5.40318 2.51376 1.87501
176 3 10.4289 5.34681 9.24231
177 3 5.09937 5.2036 16.8055
178 3 5.30632 7.87976 8.98649
179 3 17.8633 5.6903 4.44367
181 3 7.55825 12.6127 19.814501
183 3 12.2864 9.7493 18.983601
184 3 5.29856 2.36369 7.3306
185 3 14.7356 15.4917 13.9756
186 3 2.57705 10.3456 2.01574
187 3 0.714603 10.6797 6.58719
188 3 14.1109 18.504 5.1933
189 3 9.11153 16.374599 7.84585
190 3 0.336876 10.4999 1.83066
191 3 18.673901 9.08647 6.11888
192 3 10.0498 17.991501 17.152399
193 2 11.4061 1.79522 2.94525
194 2 16.6234 1.63589 3.14068
195 2 14.0523 4.1489 3.06168
196 2 13.9967 1.6247 5.25015
197 2 16.6553 1.57618 7.75146
198 2 18.8221 4.17159 8.28767
199 2 16.7297 4.37528 5.65756
200 2 14.0596 4.15852 8.05116
201 2 11.4007 4.28111 5.62369
202 2 11.7713 1.56105 8.11313
203 2 19.1859 1.868 5.3258
204 2 14.2259 1.74809 0.651865
205 2 16.411501 4.04861 0.477842
206 2 11.5225 4.06492 0.580447
207 2 19.156799 1.56791 0.891893
208 2 18.91 4.20789 2.96809
209 2 16.420799 6.34723 7.99297
210 2 14.0739 6.75095 5.53145
211 2 18.9695 19.132401 7.9137
212 2 16.344801 19.0278 5.52433
213 2 14.1069 19.148001 8.03276
214 2 11.7264 19.194599 5.61301
215 2 11.4503 6.66279 8.00309
216 2 18.8606 6.81373 5.60323
217 2 16.494499 6.66891 2.81635
218 2 14.0043 19.179001 3.15578
219 2 14.1469 6.83106 0.551349
220 2 16.4422 18.9074 0.659385
221 2 11.5615 18.9013 0.496289
222 2 18.990801 6.74534 0.701377
223 2 19.0051 19.034401 2.75623
224 2 11.5876 6.81685 2.87817
225 1 12.4049 1.78934 3.0773
226 1 14.227 2.4604 5.85844
227 1 11.0643 3.3506 5.53957
228 1 14.557 4.95788 2.56105
229 1 11.5527 2.3889 8.74942
230 1 13.3107 1.45907 0.188973
231 1 11.2466 4.55752 19.6819
232 1 14.6457 3.9159 7.1836
233 1 12.5575 6.73756 3.25807
234 1 13.3818 6.98535 6.22219
235 1 12.3711 18.5693 6.06998
236 1 14.0433 18.6402 2.22647
237 1 12.0483 7.47721 7.60214
238 1 13.6403 7.60962 0.92716
239 1 12.0319 19.840599 0.042328
240 1 13.0567 8.92095 7.98297
241 1 16.707701 1.50802 4.18058
242 1 18.5261 1.18585 4.87327
243 1 16.230499 3.49505 5.56509
244 1 18.9949 4.06229 1.98584
245 1 15.8415 2.25741 7.63295
246 1 19.001499 2.28708 0.184928
247 1 17.3071 3.80056 0.04264
248 1 19.706301 3.4795 8.40162
249 1 15.533 6.52281 3.00129
250 1 19.801001 7.24695 5.71582
251 1 16.862101 19.632601 4.8321
252 1 18.225901 9.57818 3.03094
253 1 16.7819 7.01892 8.6818
254 1 18.4256 5.87416 0.95176
255 1 16.228901 9.44247 19.4069
256 1 19.366699 19.677601 8.64905
257 3 3.15543 14.9753 14.403
260 3 10.3635 2.67587 10.1126
261 3 2.94208 12.6606 14.5334
262 3 18.1556 18.0805 6.63499
263 3 7.47465 17.5693 4.53773
264 3 4.77692 8.63693 15.6585
265 3 13.5133 13.3689 0.59594
266 3 17.505199 12.8243 1.6808
267 3 13.1701 10.8672 2.38515
268 3 2.72963 15.1728 16.8463
269 3 3.67664 18.954399 15.1512
270 3 10.2481 2.73358 7.23445
271 3 0.410177 7.38676 11.5097
272 3 0.570039 4.95182 7.19203
273 3 15.0364 10.1898 4.7587
274 3 7.70339 10.4354 4.54179
275 3 14.5822 17.331699 3.21811
276 3 7.66519 3.15977 14.4836
277 3 12.7633 5.39808 6.69198
279 3 12.8356 15.2232 16.872499
280 3 15.2203 8.20879 16.987499
281 3 1.55733 18.8731 13.3753
282 3 0.428035 5.4506 9.29416
283 3 17.699699 15.1067 4.26451
285 3 10.5835 0.27842 9.21322
286 3 16.0812 16.921101 0.640635
287 3 10.4491 2.66908 4.295
288 3 0.550676 1.99079 9.65174
290 3 6.83258 16.868799 10.6527
291 3 5.78259 10.4933 11.5509
292 3 17.598 0.017623 17.145599
294 3 2.23073 17.2533 14.9426
295 3 17.420099 10.6577 10.025
296 3 10.1936 5.33674 1.59794
297 3 15.1929 15.2153 16.772301
298 3 12.8735 0.218298 9.35072
299 3 17.8123 2.63799 16.628901
300 3 15.1807 10.6513 7.10943
301 3 15.1592 0.409604 14.4218
302 3 14.6741 7.66262 7.25023
303 3 10.1368 17.686399 1.86711
305 3 9.2573 1.94323 12.8645
306 3 3.5541 3.44653 1.36042
307 3 4.94916 17.844299 4.2794
309 3 0.299171 0.051256 1.81732
310 3 18.121099 12.8887 19.1707
311 3 10.0303 7.61276 8.96398
312 3 3.03021 5.77278 8.99457
314 3 15.3621 0.86622 1.98646
315 3 2.97798 12.5861 4.41634
316 3 15.4812 7.73875 19.480301
317 3 13.4216 19.7577 16.247299
319 3 17.588301 5.03956 12.4303
320 3 1.61201 1.04191 15.1374
321 2 1.43061 1.52697 13.2136
322 2 6.31302 1.59627 13.0237
323 2 3.99718 4.21897 12.9587
324 2 3.76165 1.69862 15.4071
325 2 6.52126 1.55848 18.066401
326 2 8.84027 4.23205 18.0655
327 2 6.65766 4.56538 15.5969
328 2 4.22946 4.05523 17.962799
329 2 1.53822 4.06721 15.7195
330 2 1.57022 1.57352 18.1957
331 2 9.05327 1.51427 15.8343
332 2 3.76302 1.60043 10.6874
333 2 6.66875 4.34324 10.7059
334 2 1.18522 3.79179 10.6028
335 2 8.74245 1.81982 10.6039
336 2 8.81218 3.92481 13.2695
337 2 6.38138 6.89419 18.330999
338 2 4.36129 6.545 15.6787
339 2 9.05418 19.1436 18.0891
340 2 6.59126 19.038099 15.667
341 2 4.03896 19.109699 17.816999
342 2 1.45028 18.8727 15.3818
343 2 1.50659 6.43202 18.233299
344 2 8.91086 6.68816 15.7456
345 2 6.65192 6.68689 13.3008
346 2 4.02575 18.9939 13.0362
347 2 3.99981 6.59159 10.547
348 2 6.43207 18.8563 10.6857
349 2 1.31792 18.990999 10.6827
350 2 8.94074 6.60513 10.4169
351 2 9.14192 19.3703 13.322
352 2 1.72383 6.50646 13.2285
353 1 0.728529 0.728949 13.042
354 1 4.5399 1.05671 15.5281
355 1 1.30388 4.25351 14.8061
356 1 3.30039 4.56236 12.3315
357 1 0.594305 1.53491 17.844
358 1 4.47046 2.1441 10.2
359 1 2.0502 4.28261 10.8491
360 1 5.31873 4.41291 18.3027
361 1 2.18799 5.69659 12.8235
362 1 4.13509 6.91091 14.7419
363 1 1.15883 18.2318 16.2304
364 1 4.96988 19.4189 13.2494
365 1 1.4561 7.01907 17.3382
366 1 2.97274 6.25522 10.8002
367 1 2.38363 18.822201 10.434
368 1 3.06786 9.37533 18.161501
369 1 5.76539 1.48977 13.9164
370 1 8.92747 1.19981 14.8659
371 1 6.36571 3.8743 16.3078
372 1 9.03698 4.45993 12.4055
373 1 5.89944 1.34921 17.179001
374 1 9.33019 0.98459 10.8095
375 1 5.81986 3.74727 10.3822
376 1 9.49937 4.51968 18.8081
377 1 5.81806 7.21857 13.0429
378 1 9.35464 7.42008 15.1934
379 1 5.75788 19.708799 15.5605
380 1 8.47557 9.26018 12.1731
381 1 6.62398 6.30936 17.5065
382 1 9.43108 5.99431 11.1341
383 1 7.03131 8.43156 11.2862
384 1 9.24159 18.5175 18.927799
385 3 12.9082 18.1457 19.256399
387 3 12.7739 10.3891 6.70808
388 3 5.17276 5.66586 2.19238
389 3 12.7471 12.8747 14.5135
390 3 14.8774 8.0771 14.5718
391 3 13.0596 0.592485 6.74806
392 3 3.7987 0.916772 13.8622
393 3 15.1627 15.1108 1.93089
394 3 15.0112 2.86816 12.0426
395 3 17.5518 5.35332 14.6844
396 3 15.0805 15.3277 11.6596
397 3 2.33138 16.1416 1.09873
398 3 5.39752 12.7536 11.8408
399 3 17.971201 7.6448 19.1635
400 3 15.8432 16.8459 5.19877
401 3 19.9624 15.5369 1.98215
402 3 5.45713 0.173935 6.71957
403 3 15.2697 10.3944 9.38819
404 3 7.38903 8.5248 13.6241
405 3 0.062132 17.593599 14.7121
406 3 15.5847 5.12753 19.0357
407 3 2.47441 0.441984 4.40359
408 3 16.415501 18.8328 3.35455
409 3 7.72459 2.83798 7.00113
410 3 9.18998 14.3384 10.9727
411 3 12.8361 12.945 9.5932
412 3 15.5089 2.66462 14.4159
413 3 14.9551 15.6243 19.032
414 3 17.203699 13.7517 12.7141
415 3 17.6984 17.797199 9.21527
416 3 4.93942 2.64583 16.9569
417 3 17.5814 15.3488 9.27117
418 3 0.368011 10.2511 14.6467
419 3 12.654 8.03589 4.62484
420 3 2.84367 7.67838 14.3401
421 3 17.2113 2.74594 1.89195
422 3 15.1733 0.284865 9.32635
423 3 5.49517 15.2736 14.4632
424 3 3.02752 17.669201 12.1825
426 3 10.2975 12.7705 9.32387
427 3 18.18 15.9382 13.6498
428 3 5.24592 17.760099 12.0026
430 3 7.05455 4.93034 12.5683
431 3 10.9103 15.9704 16.1565
432 3 5.3387 17.7288 16.741501
433 3 10.2283 17.8871 14.3498
435 3 10.4312 2.89597 19.292
436 3 14.907 3.21576 1.64598
437 3 10.9239 7.20975 11.2052
438 3 7.7681 18.096201 14.1718
439 3 8.12118 12.6326 2.28645
440 3 14.9454 5.68572 12.1694
441 3 18.9 11.2737 7.92518
443 3 9.18693 19.432899 15.4442
444 3 1.84858 14.4905 2.85979
445 3 6.77365 19.145399 3.05922
446 3 2.96939 2.75595 3.54381
447 3 10.7524 0.340102 6.93133
448 3 13.3929 1.33318 17.9645
449 2 1.65951 11.621 3.18142
450 2 6.45781 11.5891 3.35459
451 2 3.84767 13.8703 3.07311
452 2 4.0062 11.6574 5.73591
453 2 6.46822 11.7641 8.00348
454 2 9.04131 14.2789 8.08289
455 2 6.40893 14.3216 5.60765
456 2 4.05137 14.2498 8.06312
457 2 1.5797 13.8116 5.83496
458 2 1.56272 11.6252 8.08029
459 2 9.20136 11.4909 5.64145
460 2 3.95738 11.5295 0.768631
461 2 6.1881 14.1047 0.754943
462 2 1.81126 14.132 0.508308
463 2 8.80589 11.5566 0.738838
464 2 9.26725 13.9985 2.93953
465 2 6.65384 16.6889 8.11757
466 2 4.09607 16.442101 5.46656
467 2 8.86836 9.27213 8.2456
468 2 6.54639 9.14408 5.71116
469 2 4.03937 9.15118 8.24236
470 2 1.53834 9.23797 5.50445
471 2 1.57428 16.6129 8.04227
472 2 9.13818 17.0439 5.59013
473 2 6.44388 16.942801 2.96788
474 2 4.01035 9.21652 3.46329
475 2 4.23764 16.563999 0.436905
476 2 6.48608 9.15554 0.679772
477 2 1.4503 9.03901 0.81832
478 2 9.04215 16.6341 0.818046
479 2 8.91414 9.01529 3.05681
480 2 1.48739 16.5415 2.99088
481 1 0.97496 12.372 2.84103
482 1 4.00348 10.9314 4.94517
483 1 1.82066 14.2977 4.91165
484 1 4.68224 14.0357 3.58247
485 1 2.15563 10.986 8.73149
486 1 4.90947 11.8745 1.00595
487 1 0.980006 13.7852 0.933212
488 1 3.30692 14.7978 8.45535
489 1 1.23359 16.2985 4.01339
490 1 3.01499 16.260201 5.20242
491 1 1.17709 8.6343 6.31446
492 1 4.0551 8.6226 2.64517
493 1 2.48832 17.0222 8.14409
494 1 3.5289 17.2251 0.847965
495 1 2.48998 9.1793 0.456511
496 1 3.82162 18.673201 8.508
497 1 7.12679 12.1187 4.0571
498 1 8.47711 12.2067 5.79472
499 1 7.17612 13.8042 6.07928
500 1 9.77683 14.2771 3.78732
501 1 7.3107 12.3345 7.65853
502 1 9.5027 11.4658 1.50127
503 1 6.57946 14.1782 1.72558
504 1 8.18359 14.386 7.39605
505 1 6.86727 17.355301 2.14963
506 1 9.32621 16.139999 5.12085
507 1 6.08061 8.38175 5.14107
508 1 8.90448 18.3099 2.96215
509 1 6.93508 17.537001 8.53723
510 1 9.45104 16.061001 0.119755
511 1 6.17637 0.026528 0.817544
512 1 9.44211 8.65305 7.60413
513 3 12.7248 10.4435 4.52532
514 3 8.89395 11.4835 12.6866
515 3 7.16229 13.288 17.524099
517 3 17.2803 15.7921 11.4706
518 3 15.5758 18.2843 18.946301
519 3 15.1819 17.6528 12.4201
523 3 17.8897 15.1316 19.675501
524 3 5.63349 12.4434 4.6765
525 3 5.28678 10.6504 9.20783
526 3 12.7838 0.552501 12.0816
527 3 17.9622 0.648672 6.71391
528 3 14.8327 2.71202 3.91639
529 3 5.06864 8.17645 11.3462
530 3 5.23664 15.463 9.31982
531 3 0.631302 5.8922 14.6934
532 3 2.75757 5.17152 19.136101
534 3 11.9839 9.05796 2.54205
535 3 6.33849 4.39612 3.26765
537 3 5.84577 9.59078 17.5119
539 3 9.71499 13.2221 0.196538
540 3 15.8598 18.499201 7.33195
541 3 12.8346 2.93675 7.17797
542 3 7.83354 7.56161 4.2128
543 3 12.7813 7.74502 14.1685
544 3 5.37119 0.411922 19.389601
545 3 9.86667 0.055925 19.7208
546 3 7.96105 18.255501 6.60164
547 3 0.320271 10.2773 4.11081
548 3 2.57329 18.264601 3.40136
549 3 5.52394 10.1843 4.31523
550 3 10.2928 12.7767 14.3818
552 3 4.88801 13.2871 16.439199
553 3 16.563 4.1332 8.19983
554 3 10.0031 3.15876 14.7778
555 3 5.431 5.61385 19.7141
556 3 14.8781 5.60845 17.231899
557 3 5.09072 18.1078 1.58729
558 3 7.60835 15.6942 6.41065
559 3 13.2081 2.56071 9.33187
561 3 8.83426 15.364 16.971001
562 3 8.06702 5.40466 9.06606
563 3 5.43864 17.908001 14.435
564 3 12.4485 18.249201 14.2276
565 3 19.770201 5.92555 2.62888
566 3 12.9833 5.6447 1.79935
567 3 2.73229 7.95841 11.9717
568 3 11.7046 19.666901 17.9394
570 3 7.96532 13.0814 14.5593
571 3 0.388608 10.4232 9.2071
572 3 9.54334 0.755691 17.608601
574 3 0.435477 18.064699 19.4482
575 3 2.40205 2.5494 11.9336
576 3 8.26235 4.8772 6.6321
577 2 11.5803 1.88832 13.4492
578 2 16.472601 1.56125 13.3442
579 2 13.9354 4.29561 13.1601
580 2 13.7754 1.55594 15.9505
581 2 16.6626 1.36542 18.1287
582 2 19.004999 3.99103 18.222099
583 2 16.506201 4.01569 15.6012
584 2 14.049 4.09535 18.129801
585 2 11.4102 4.27915 15.9635
586 2 11.5505 1.73876 18.1938
587 2 18.8587 1.65512 15.6387
588 2 14.098 1.55175 10.619
589 2 16.6416 3.95237 10.3774
590 2 11.7322 3.94057 10.4046
591 2 18.8612 1.56114 10.555
592 2 18.822599 3.73049 13.0728
593 2 16.4956 6.6169 18.172001
594 2 13.989 6.86236 15.8084
595 2 19.201799 19.1437 18.2924
596 2 16.2743 19.1075 15.575
597 2 13.9843 19.3598 18.215
598 2 11.3858 19.2771 15.5568
599 2 11.5286 6.62137 18.262699
600 2 19.0781 6.5423 15.7772
601 2 16.5383 6.58128 13.1298
602 2 13.8648 19.239901 13.3679
603 2 14.0864 6.35363 10.5836
604 2 16.430201 19.1821 10.3517
605 2 11.6739 18.9911 10.5473
606 2 19.0229 6.67619 10.6887
607 2 19.154699 19.099701 13.1643
608 2 11.6039 6.52402 13.0813
609 1 11.1899 1.8656 12.431
610 1 13.5314 2.42328 15.4466
611 1 11.884 4.07308 15.0594
612 1 13.7221 3.34078 13.7009
613 1 11.6096 1.18681 19.065201
614 1 14.7277 1.03106 11.3595
615 1 10.8199 4.14625 10.9818
616 1 14.0304 4.01706 17.042299
617 1 10.7607 6.21353 12.6179
618 1 14.9792 6.64213 15.9087
619 1 11.5674 18.4296 16.025499
620 1 14.6202 19.4891 12.6636
621 1 10.8671 5.74282 18.4259
622 1 15.11 6.3428 10.4887
623 1 11.0915 19.7122 10.9891
624 1 14.6969 9.27353 18.978901
625 1 15.797 1.00901 12.7952
626 1 19.0411 1.21964 16.565701
627 1 16.0371 4.8303 15.8079
628 1 19.241501 4.33079 13.8121
629 1 17.063299 2.21492 18.385
630 1 19.002399 0.626323 10.0764
631 1 15.8499 4.55339 10.5557
632 1 18.249001 3.51256 18.663
633 1 16.396999 6.65371 14.2055
634 1 18.819599 7.00987 16.6821
635 1 16.142799 18.5679 16.4534
636 1 19.4646 8.43111 12.447
637 1 16.832399 7.07894 17.3158
638 1 18.139299 6.24847 10.8767
639 1 16.6007 8.35791 10.0044
640 1 18.836399 18.545401 17.626301
642 3 17.8815 17.6271 1.78334
643 3 19.863899 15.4117 11.6636
644 3 10.1129 10.3939 19.281
645 3 13.0757 0.87494 14.2506
646 3 18.5112 7.56035 14.3592
647 3 7.10543 0.460225 14.4487
648 3 0.29528 0.520481 19.3452
649 3 20.0208 15.4524 16.916901
650 3 5.44377 5.25239 14.2455
651 3 16.5429 16.8083 16.041401
652 3 17.971201 0.457559 19.3759
653 3 2.74982 5.23405 16.899401
654 3 4.75714 10.69 2.44479
655 3 11.7401 7.06461 0.722979
656 3 2.6142 2.93988 6.79701
657 3 12.7848 2.75799 11.6735
658 3 3.81084 14.5645 1.3105
659 3 0.266035 5.38403 17.0305
660 3 2.84239 10.3551 7.03424
661 3 0.364601 17.452999 6.84188
662 3 12.9013 5.04936 9.28933
663 3 18.7232 13.4229 11.2515
665 3 13.099 12.3156 12.2901
666 3 2.59106 3.24381 9.36197
667 3 10.352 15.151 18.722401
669 3 2.54014 12.5723 16.6408
670 3 0.374121 13.0861 9.32974
671 3 0.164738 2.58656 6.85309
672 3 5.57081 2.7347 19.2742
673 3 0.115941 7.90128 1.80242
674 3 7.83617 7.75293 9.15731
675 3 9.91952 10.159 4.5573
676 3 17.221001 5.01555 2.18675
677 3 17.7377 5.2509 17.123301
678 3 8.04644 15.7485 2.1936
680 3 12.3746 18.285 3.57741
681 3 3.5483 10.7033 17.3027
682 3 3.0372 0.818505 17.268101
683 3 15.0406 0.514388 4.20305
684 3 2.52716 2.81081 16.721001
685 3 5.08063 10.2546 6.93827
686 3 3.08244 10.5665 11.8333
687 3 15.1644 13.0085 4.4633
688 3 19.0259 7.20837 7.75393
689 3 13.181 7.53615 18.963499
691 3 14.0985 17.198 7.45869
692 3 2.82387 7.79195 16.7328
693 3 18.0126 10.1417 14.4233
694 3 2.8895 13.0221 19.3452
695 3 15.5624 0.451941 19.4359
696 3 5.90616 15.58 4.36377
697 3 17.211201 0.355551 9.06044
698 3 0.509794 7.76809 9.28688
699 3 15.2198 10.2042 16.775101
700 3 5.23116 15.5732 7.14351
701 3 15.3286 15.2867 7.08701
702 3 17.802601 7.85167 3.89721
703 3 9.88364 13.338 6.39449
704 3 2.63583 15.3877 6.86834
705 2 1.79614 11.4565 13.0204
706 2 6.69339 11.6023 13.1448
707 2 4.44518 14.178 12.7861
708 2 4.25686 11.6513 15.6332
709 2 6.57494 11.6175 18.2395
710 2 8.86053 14.1533 18.601601
711 2 6.40154 14.0968 15.6815
712 2 4.08118 14.0096 18.018101
713 2 1.62514 13.9359 15.4762
714 2 1.59997 11.527 18.1968
715 2 9.04936 11.7919 15.7322
716 2 4.26217 12.0195 10.6848
717 2 6.77984 14.1422 10.627
718 2 1.64646 14.2791 10.5009
719 2 9.15969 11.8521 10.6263
720 2 9.11096 14.061 13.1963
721 2 6.56066 16.6182 18.058599
722 2 4.05036 16.608999 15.6202
723 2 8.99673 9.18987 18.3405
724 2 6.56336 9.32433 15.648
725 2 4.06438 9.04867 18.1439
726 2 1.64577 8.86997 15.3673
727 2 1.81537 16.724199 18.105499
728 2 9.10283 17.065701 15.6122
729 2 6.54037 16.656 13.1332
730 2 4.09756 9.05867 13.0764
731 2 4.21017 16.525299 10.649
732 2 6.64904 9.0647 10.4423
733 2 1.38303 8.95475 10.6992
734 2 9.08614 16.612499 10.7273
735 2 8.98265 9.22499 13.0109
736 2 1.21568 16.7374 13.1499
737 1 1.2511 11.7196 13.8445
738 1 3.8089 10.756 15.7158
739 1 1.01344 13.5151 14.7072
740 1 3.89831 15.0225 12.6321
741 1 1.50233 10.5364 18.005199
742 1 3.52974 11.4659 10.1284
743 1 1.48565 14.4199 11.5411
744 1 4.35745 13.0202 17.9652
745 1 2.13785 16.296 12.8882
746 1 4.45909 16.598 14.6306
747 1 1.89994 9.75808 15.8407
748 1 4.88886 8.41616 13.3523
749 1 1.16096 17.417999 17.754101
750 1 4.05181 17.448099 10.442
751 1 1.93583 9.28706 9.80647
752 1 4.79101 19.604601 17.460501
753 1 7.29027 10.9279 12.538
754 1 8.35188 12.5825 16.197901
755 1 7.13698 14.7215 15.1715
756 1 10.1068 14.3311 12.9795
757 1 5.60437 11.6279 17.993
758 1 8.52128 11.1055 10.7936
759 1 5.78814 14.0939 10.8899
760 1 9.06468 13.2529 18.1238
761 1 7.1374 15.8624 13.6489
762 1 8.19744 16.625799 15.6135
763 1 7.43401 8.79296 15.9076
764 1 9.25879 19.820101 12.3493
765 1 7.66429 16.3283 18.062901
766 1 9.06434 17.5313 10.2028
767 1 6.89067 19.0777 9.76894
768 1 8.83546 9.09346 17.289499
770 3 17.738199 2.50985 9.23951
771 3 9.96946 7.80014 2.23613
772 3 2.56968 2.88988 14.4014
773 3 12.9362 18.005301 11.8845
774 3 7.81415 2.62148 17.0539
776 3 11.0975 1.00474 16.1926
777 3 7.19284 0.533329 11.5299
778 3 2.57246 10.3836 4.21941
779 3 7.80439 3.18818 9.4656
780 3 7.76505 15.2095 19.892099
781 3 7.87127 5.59961 1.75109
783 3 7.37525 10.5698 1.99219
784 3 15.4318 4.76116 14.296
785 3 0.449177 12.4503 19.5452
786 3 10.2578 13.1011 16.738501
787 3 17.292999 0.65181 11.5762
788 3 12.4957 15.8149 19.494499
789 3 0.209618 13.0073 16.820299
790 3 0.722042 15.2296 19.2563
791 3 2.84532 7.98781 4.52859
792 3 15.4601 5.19047 4.46769
794 3 7.74248 0.738072 19.3006
795 3 10.4299 7.99805 16.952
796 3 7.40544 10.5011 6.70789
797 3 0.132844 3.26098 16.6343
798 3 0.108733 0.302941 6.52316
799 3 3.11386 2.91159 19.1458
800 3 17.7967 12.6404 16.9585
801 3 7.72457 2.57028 4.37553
802 3 5.30558 8.05453 19.516199
803 3 5.09763 7.65975 3.83268
804 3 8.26675 0.17172 4.6034
805 3 7.73479 14.3346 4.18041
806 3 0.735252 3.45903 2.11245
808 3 17.3985 12.8537 4.13145
809 3 10.6525 8.34306 13.4647
810 3 12.8828 15.3434 1.8826
811 3 14.9822 15.0549 4.18715
812 3 7.83587 13.1923 9.25885
813 3 2.62885 13.0871 9.43091
814 3 15.2869 10.3387 2.03778
815 3 4.89516 0.577718 4.17067
816 3 12.9832 15.2356 6.87723
817 3 8.05224 10.7734 17.2194
818 3 18.6087 10.661 12.2268
819 3 2.72993 5.55021 1.76186
820 3 17.437099 7.98118 1.60636
821 3 18.0002 12.9281 6.50928
822 3 8.24169 0.518087 7.09401
823 3 0.84634 9.97138 12.1851
825 3 10.6753 15.6603 6.39289
826 3 5.25887 10.4826 19.9111
827 3 9.37862 15.69 14.1364
828 3 17.683201 0.331213 1.77099
829 3 10.4848 17.5923 19.6052
830 3 0.185458 17.849001 11.8327
831 3 9.48079 9.79146 1.23457
832 3 18.036699 18.212099 14.7548
833 2 11.4481 11.3449 3.48336
834 2 16.2904 11.5838 3.17116
835 2 14.0472 13.9662 2.84191
836 2 13.9215 11.5735 5.66232
837 2 16.754299 11.1714 8.24353
838 2 18.9737 14.1108 7.95758
839 2 16.302 14.2185 5.48484
840 2 14.0513 14.0661 8.35838
841 2 11.6075 14.0325 5.57247
842 2 11.5559 11.4852 7.86486
843 2 19.2358 11.2605 5.76744
844 2 13.9413 11.445 0.789499
845 2 16.392799 14.0877 0.628556
846 2 11.4321 14.2015 0.683637
847 2 18.980801 11.6447 0.376357
848 2 19.245199 14.0611 3.0485
849 2 16.311501 16.454599 8.03879
850 2 14.0997 16.4007 5.47638
851 2 19.127399 8.98843 8.3137
852 2 16.562799 9.16099 5.92106
853 2 13.9057 9.10494 8.36845
854 2 11.3921 9.1907 5.63808
855 2 11.5828 16.5336 7.87429
856 2 19.126301 16.4111 5.59419
857 2 16.5334 16.5203 3.03852
858 2 13.8743 9.18061 3.04169
859 2 13.7736 16.6672 0.657325
860 2 16.3964 9.34641 0.362184
861 2 11.3257 9.17037 0.56775
862 2 19.116199 16.728201 0.605289
863 2 19.1614 9.15876 2.90039
864 2 11.7353 16.7106 3.00832
865 1 10.7769 10.864 2.88929
866 1 14.5079 12.1278 6.27625
867 1 11.7498 14.1698 6.54176
868 1 13.1574 13.5039 2.62491
869 1 10.5551 11.8458 7.84108
870 1 13.8451 10.4406 0.580553
871 1 11.5194 13.6995 19.7502
872 1 14.6209 13.384 7.86626
873 1 11.114 16.399401 3.81396
874 1 13.0852 16.632601 5.47602
875 1 11.6896 9.04048 6.64744
876 1 13.69 8.18661 2.89271
877 1 11.951 17.484699 7.65359
878 1 14.0751 17.5951 0.280379
879 1 12.288 9.09346 0.788457
880 1 13.5478 19.063499 7.19721
881 1 17.0263 10.9968 3.74527
882 1 18.652 11.103 4.89519
883 1 15.9573 13.5655 6.29891
884 1 19.371 13.0719 2.75972
885 1 16.645399 12.1408 8.28802
886 1 19.1674 12.3435 1.052
887 1 15.3792 13.9995 0.533647
888 1 18.1064 13.7398 8.29683
889 1 17.301901 16.9081 3.5986
890 1 18.336399 16.888 5.14841
891 1 15.6142 8.96991 6.4311
892 1 18.4828 19.1304 3.62494
893 1 17.200199 16.858601 7.78267
894 1 19.1208 16.3682 19.745399
895 1 15.599 18.7474 1.14118
896 1 19.969299 8.92869 7.7973
897 3 2.74766 12.6787 6.70716
898 3 10.0368 5.527 16.892099
899 3 8.00338 3.10837 2.12321
900 3 18.2477 18.0462 19.628
901 3 2.34571 10.7099 19.814301
902 3 17.898001 2.88048 6.74905
903 3 12.8328 10.4874 9.33779
904 3 15.8125 11.2509 0.04436
905 3 12.4649 15.5865 14.4439
906 3 7.7072 10.4731 9.1185
907 3 7.65153 7.98467 19.618799
908 3 15.3362 2.79651 16.994801
910 3 12.8262 15.2083 9.19462
911 3 18.350599 14.2476 15.2441
912 3 9.801 12.453 4.14118
913 3 2.58691 9.89107 14.0487
914 3 7.7974 3.14732 19.217899
915 3 2.90734 7.93959 9.39056
916 3 2.89673 5.57311 6.70747
917 3 14.805 5.71543 8.91975
918 3 15.0936 12.5286 1.98614
920 3 7.72903 17.865 19.167299
921 3 10.3301 15.2634 1.74933
922 3 12.3739 7.64776 9.4829
923 3 17.9165 10.3438 1.66831
924 3 0.169273 2.62049 14.2447
925 3 10.8398 0.188598 1.83805
926 3 18.9604 1.88489 2.83013
927 3 13.1654 0.213098 1.72277
928 3 2.23159 16.297001 9.80828
929 3 5.32131 13.0951 19.427999
931 3 5.6605 15.8563 1.62412
932 3 15.2815 13.2143 14.3848
933 3 0.231493 0.241862 4.04122
934 3 10.827 15.9065 11.3502
935 3 15.2481 17.888 9.6722
936 3 6.9731 6.19792 10.7816
937 3 15.2202 5.48347 6.74643
939 3 17.241199 10.8621 6.34509
941 3 10.2537 5.5345 14.5677
942 3 6.59497 6.88331 15.3701
943 3 15.3587 0.402059 16.806801
944 3 17.186001 9.36145 7.87941
945 3 5.65403 17.915199 19.1353
950 3 3.12073 12.6782 12.3359
952 3 2.74442 0.303719 1.9351
953 3 7.54464 17.844101 16.746599
955 3 17.9247 3.2569 4.27039
956 3 0.484883 5.95049 4.85558
957 3 1.54226 1.72373 0.876808
958 3 18.6005 8.51592 9.92101
959 3 10.5078 18.0165 6.80215
960 3 10.2321 2.89931 1.67163
961 2 11.4179 11.6278 12.9609
962 2 16.676201 11.4724 13.0057
963 2 13.8581 13.8499 13.21
964 2 13.8891 11.4581 15.9372
965 2 16.611099 11.7189 18.162201
966 2 19.0532 14.3702 18.3472
967 2 16.5839 13.8334 15.8303
968 2 13.83 14.1302 18.386101
969 2 11.6211 14.2371 15.7556
970 2 11.7816 11.3963 18.210699
971 2 19.037001 11.7213 15.7931
972 2 14.1833 11.4444 10.7623
973 2 16.539801 14.2739 10.6795
974 2 11.3539 14.1751 10.488
975 2 19.305401 11.7821 10.4136
976 2 19.0203 14.1209 13.2476
977 2 16.176399 16.5916 17.9858
978 2 14.3344 16.563999 15.5248
979 2 19.113899 9.18834 18.1164
980 2 16.455099 9.34787 15.6235
981 2 13.9653 9.25496 18.185499
982 2 11.4716 9.14482 15.7834
983 2 11.5853 16.559 17.9615
984 2 18.7248 16.4755 15.649
985 2 16.3759 16.3088 12.8658
986 2 14.1129 8.9639 13.1647
987 2 14.1019 16.844801 10.7355
988 2 16.515301 9.01248 10.7759
989 2 11.3072 9.20809 10.4767
990 2 18.7754 16.726999 10.3155
991 2 19.405701 9.11047 13.2302
992 2 11.4332 16.7628 13.2328
993 1 11.9456 10.8334 13.0856
994 1 14.4335 11.5426 14.9733
995 1 10.7376 14.5502 15.2078
996 1 13.3949 14.1231 12.3022
997 1 11.3768 12.3485 18.313
998 1 13.1601 11.1938 10.9026
999 1 11.9589 13.9005 11.3564
1000 1 12.8988 13.8113 18.713499
1001 1 12.2771 16.416401 12.7406
1002 1 13.3827 16.825701 15.7791
1003 1 11.2761 8.30324 15.3134
1004 1 13.6229 9.37298 12.2481
1005 1 11.8657 17.305099 17.343399
1006 1 13.2204 16.2199 10.6886
1007 1 12.085 9.35005 11.1833
1008 1 13.9092 19.846701 19.1145
1009 1 16.9447 11.3985 12.0477
1010 1 19.685301 12.2589 15.1664
1011 1 16.798201 14.6905 15.2902
1012 1 19.937401 13.7154 13.222
1013 1 15.8843 10.922 18.414499
1014 1 18.575399 12.0965 9.79956
1015 1 16.5502 13.5136 9.93551
1016 1 19.551001 14.2124 19.2423
1017 1 16.3769 16.7321 13.8565
1018 1 18.886299 17.246201 16.353201
1019 1 17.099501 8.52684 15.8033
1020 1 18.7076 0.062721 12.9494
1021 1 17.1441 16.938499 18.016001
1022 1 18.744301 17.736 10.3655
1023 1 15.578 19.1485 10.923
1024 1 18.809799 8.2801 17.5919
138 1 6.847660475891552 10.072744730141105 0.2824495452547104
641 1 4.048190536594461 4.573345868695822 13.890702416865121
551 1 14.003626327819862 9.495519912722592 14.1409384643954
289 1 7.317519027002789 14.998753313186333 10.806264819724484
259 1 4.804649965070972 6.539698709921618 11.309671440686328
41 1 4.157502644501236 7.110684105701933 16.516030887042287
434 1 3.9080912821153233 5.0859692258889515 7.874854451801144
425 1 12.294392227621028 7.057286663952548 12.570440930576869
679 1 3.8555204134162273 17.541717829288185 16.10862857399229
8 1 14.357215927921365 15.032728618259041 8.421079472139965
909 1 6.978997532312226 12.645901167289214 13.237602346517262