# LAMMPS data file written by OVITO Basic 3.8.0

390 atoms
3 atom types

0.0 14.3208 xlo xhi
0.0 12.402177 ylo yhi
0.0 30.0 zlo zhi
-7.1604 0.0 0.0 xy xz yz

Atoms  # atomic

1 3 -5.8869964689 10.239993864 3.36801
2 3 4.558990878 10.7490040124 3.192
3 3 6.6890022264 11.2670057392 4.59501
4 3 12.2029971336 2.2699952607 4.56099
5 3 10.1849937743 1.2080005648 3.32799
6 3 8.5429944756 4.2299981072 3.40101
7 3 4.8820036824 4.1369941819 3.32199
8 3 4.9020026796 2.2429957213 4.91901
9 3 6.4589958576 5.0740034586 4.674
10 3 6.7470014664 7.3210050831 3.28299
11 3 8.398003536 2.167999757 4.77501
12 3 8.5460018436 8.3279998446 4.842
13 3 0.9649927872 4.5540049813 3.18399
14 3 10.2649990716 5.7890013648 4.881
15 3 3.1700021652 5.1990050006 4.83201
16 3 3.6309958776 1.3599979255 3.0
17 2 10.2760046064 3.0740035912 4.086
18 2 8.5040053816 0.1459996679 4.128
19 2 12.0110001013 0.1009999809 4.45101
20 2 6.7069963116 3.2409989045 4.11501
21 2 5.0050050336 6.3329980546 4.203
22 2 3.2550032736 3.1500041319 4.13199
23 2 8.2890079272 6.1779956464 4.41099
24 2 4.7160045517 0.0109999993 4.35201
25 2 -5.9224012099 12.3452013989 4.30101
26 2 6.760992888 9.2770020265 4.17201
27 1 5.263001406 0.194999429 3.48801
28 1 1.3660016807 0.906999729 3.93801
29 1 2.2629942972 2.8730015086 3.999
30 1 12.4050049063 0.3870000115 3.53301
31 1 7.7519994084 0.6640001544 3.633
32 1 10.2139955424 3.6419984935 4.95399
33 1 8.7259999788 6.4350059604 3.504
34 1 4.082000832 6.776003817 4.01601
35 1 5.9070006216 9.1340049257 3.60099
36 1 6.5909906712 2.2180053347 3.96801
37 3 -2.4229980179 4.29199659 3.39501
38 3 1.25700822 10.5139951605 3.378
39 3 2.8830061728 11.6069990195 4.75701
40 3 -2.1629993112 10.3359991162 3.30999
41 3 -4.1500031508 11.2750051434 4.404
42 3 -0.4729945428 11.9039939521 4.84101
43 3 1.6709939064 8.2820001701 4.73601
44 3 -0.7190044056 5.3340026972 4.725
45 3 -2.3789927772 8.3569961344 4.848
46 3 4.8060031968 8.329004421 4.992
47 3 -0.5450066856 7.3780054886 3.384
48 2 3.209004864 9.6069991521 4.278
49 2 -0.3830026356 9.3290043546 4.089
50 2 1.1419907148 6.2290058004 4.39101
51 2 -2.2430010283 6.3580008434 4.125
52 2 -0.5209978644 3.4180027747 4.13001
53 2 -4.0579991712 9.4199991273 4.104
54 1 1.6979957748 6.5089973484 3.558
55 1 -3.0080024114 6.8820052238 3.65601
56 1 -0.7030009116 9.5290018609 5.05599
57 1 -0.0529998487 2.4960001321 4.01901
58 1 -4.0690032739 8.4240050968 3.816
59 1 3.3829954236 8.7780004349 3.67101
60 3 -0.7353874008 2.7075440652 15.52551
61 2 6.5420378806 1.0412198092 19.44984
62 1 6.7468425055 1.034815325 20.57877
63 1 -2.7938735136 7.9524247185 7.80183
64 3 -0.4790092788 5.2602469506 9.62358
65 3 8.7904722204 3.7383013979 17.193
66 3 12.0347048203 0.4522230604 6.61821
67 3 1.3091287716 4.4814150394 12.27489
68 3 -2.8445261832 9.8606980848 8.31519
69 3 0.1619968896 12.0310790598 9.28701
70 3 -2.6107462836 8.2208450353 19.44828
71 3 4.818376368 10.2704164042 8.01096
72 3 -3.6094803077 6.9035230009 17.26011
73 3 0.3760011965 0.4950204928 15.25233
74 3 -5.9440728766 12.3044106387 10.62255
75 1 1.8750080232 9.41682417 10.25394
76 3 8.3548692864 8.1744980999 9.85374
77 2 2.9689832437 0.7681499162 10.34607
78 2 -0.4659973999 1.3544417502 10.26393
79 2 -5.7870854028 12.1562418301 13.0617
80 2 4.8203421126 0.0699913138 13.06602
81 2 2.9968350516 3.290781243 13.24689
82 2 4.694573052 10.3210172863 19.07355
83 2 -2.2166665092 10.0344401824 19.12812
84 2 -0.6373801418 2.7112647183 13.49034
85 2 9.7724924388 2.1232403002 22.81008
86 1 13.5054252029 0.5278713792 9.74388
87 1 3.7390319928 1.3856208231 10.21125
88 1 -2.5549238052 11.9519407684 13.90752
89 1 1.5073415323 0.4018206131 12.24153
90 1 5.14779057 5.2760969328 9.51924
91 1 -0.5306142816 3.7717252649 13.65453
92 1 -2.6426458656 10.5748154365 19.80027
93 1 10.4410231848 1.7287890607 23.46537
94 1 4.385351178 10.7601659717 19.97385
95 3 3.0103180848 5.2799044011 13.66905
96 3 6.7386810816 7.1282752525 8.24988
97 3 -0.7763090868 9.0894935124 11.00412
98 3 2.9631740112 5.1074149234 9.94776
99 3 9.9617919336 5.227269562 14.11227
100 3 8.3138043924 6.3234855848 6.36816
101 3 9.2644190964 3.1049222185 15.0447
102 3 -2.178157878 6.4415543099 6.63513
103 3 1.0765160172 3.8428021413 5.57352
104 3 6.04982196 11.6477773774 19.224
105 3 1.5551171532 10.0984850244 5.98215
106 3 6.848671986 1.2672916524 7.63914
107 3 4.8163141728 1.9254131749 19.28622
108 3 -5.7796185377 12.1672549633 6.60354
109 3 6.5982799584 3.037342756 20.03673
110 3 8.0498004444 6.0547552136 20.15295
111 3 -0.8696048026 3.4522079788 6.6429
112 3 -0.0846810385 1.0862657562 5.2242
113 3 -2.6612414244 12.1320451828 16.65618
114 3 4.9545242136 8.0208599312 9.34893
115 3 6.7545986508 11.058190285 9.4524
116 3 7.9349834304 2.0635734267 18.66198
117 3 0.6454456164 10.5167608459 12.29667
118 3 0.8851901292 5.9465586214 19.73388
119 1 4.0322074104 3.1075390778 12.79509
120 3 8.4676262533 1.2006882412 11.23626
121 3 2.9120781128 0.656421184 8.28339
122 2 6.6470924052 11.7362669103 7.12269
123 2 6.5806725348 9.2646618604 13.00878
124 2 4.9751032032 10.7185814722 10.12734
125 2 6.4532245752 7.4438858528 10.17513
126 2 8.3680515828 6.1736672867 13.15533
127 2 -0.6115196412 7.346293122 19.91676
128 2 4.7205867852 6.2927281859 13.60524
129 2 6.6241146816 11.5363314149 16.12167
130 2 2.8525816332 11.2355414161 16.46937
131 2 2.9200326012 9.1207221941 13.64265
132 2 8.4761020188 8.0506623625 16.6974
133 2 8.54898057 5.9500808397 22.29603
134 1 5.8443757632 11.7780250403 7.80006
135 1 4.8032392824 10.1819144691 11.02578
136 1 6.5297334492 6.5703633202 10.68495
137 1 7.6680293976 5.8259226458 13.86264
138 1 5.6905632108 6.2475594572 13.94373
139 1 5.7628832508 9.6453838899 12.45459
140 1 2.6888948892 8.7846728061 12.64077
141 1 3.7836312602 0.5526831745 19.91343
142 1 7.5804505452 5.988006697 22.41738
143 1 2.6189377812 12.0754664513 15.84171
144 1 -0.834401412 6.9866671955 20.86458
145 1 6.1955790624 10.6664675245 16.18104
146 1 8.6150137788 7.255062708 16.00329
147 3 11.7845576784 4.1046741086 16.37442
148 3 8.7814143144 5.9999499934 17.65428
149 3 9.5360631912 4.1308675065 23.17494
150 3 -3.916488186 11.3960503909 9.48951
151 3 3.2515877628 7.2899872384 7.97826
152 3 6.6662393148 9.2046849324 10.89207
153 3 13.5263450275 0.9102602614 17.21427
154 3 1.289122614 2.0890599004 9.65481
155 3 1.2622138308 8.3801137924 14.3928
156 3 2.9100724848 9.3432296517 20.04225
157 2 11.9514946712 0.0907849278 13.33338
158 2 2.705342328 7.1393627988 19.81869
159 2 1.4812075044 11.8428264151 13.03083
160 2 10.0890537228 3.0157009571 13.22592
161 2 10.0907507376 1.3510187493 10.21173
162 1 9.9855214992 0.3312621477 9.97152
163 1 4.794818652 11.3844543554 13.19286
164 1 2.2145183892 12.2226802923 13.57572
165 1 10.6147130076 3.4415173023 13.9278
166 1 3.2827641444 7.1430462453 20.56269
167 3 10.6020749016 1.4098298727 12.45861
168 3 5.0659615188 4.5747290191 14.74173
169 3 -0.3676793796 11.6796137658 13.94883
170 3 -1.4040685152 11.6016660834 18.83319
171 3 8.179826148 1.5945230925 14.03952
172 3 1.7711535816 6.3344367071 15.49035
173 3 6.0642716472 7.4862516894 12.59133
174 3 -4.9167631282 9.1679248798 15.60495
175 3 9.9272716452 4.6618667147 18.95799
176 2 8.2155135816 10.3088879572 10.20537
177 2 -4.1571793037 8.9239368516 13.75302
178 2 -4.2638606712 11.289974571 16.38789
179 2 1.0037305512 4.0945043235 19.92114
180 2 1.0466643096 2.2089765498 16.42551
181 1 -5.1230442276 10.1270348359 10.52733
182 1 -3.3465776292 9.566630066 13.78119
183 1 1.5861431664 3.4035542385 20.41782
184 1 -5.2293203165 10.9123654879 16.32234
185 1 8.972840448 1.6034774643 23.05086
186 3 -0.3516887743 1.343428617 7.8885
187 3 4.7598257772 11.0851526178 5.55273
188 3 -0.20568249 7.7094040602 18.07851
189 3 -4.3901085478 9.439110882 6.32037
190 3 10.1715415308 6.0653466727 20.94063
191 3 6.3979555957 0.686717222 16.86834
192 3 6.405300018 2.9756667298 15.78597
193 3 8.6115195036 8.1889962448 18.83193
194 3 7.0124016924 9.7561353305 6.05769
195 3 2.8464666516 10.8104195929 12.46335
196 1 -0.8925223788 5.8052234123 17.58987
197 3 8.2722096288 6.0099957568 10.97007
198 3 8.181795258 4.3451647228 12.42561
199 1 6.0788359008 4.8730881912 7.87023
200 3 3.126194838 7.2188979599 13.14549
201 1 4.0166550216 10.6177021645 9.75402
202 3 10.1216621844 6.5097166746 12.36747
203 1 4.8294320256 1.2691643811 7.33242
204 2 6.6080395836 5.453944151 7.12344
205 2 4.9401318096 2.3467647363 7.19751
206 2 8.7257422044 2.0491496948 7.18896
207 1 8.7194768544 3.0134313588 6.73323
208 1 4.6166177772 2.6373601456 8.06283
209 1 7.430418684 4.8876731513 7.28061
210 3 1.3363740936 4.3273179901 7.87101
211 3 -3.5861288112 9.0349363358 11.29398
212 3 10.790042562 2.5042103733 21.05184
213 3 12.0709257037 0.4835695628 11.06535
214 3 2.7190702469 0.731192669 16.83636
215 3 2.9172758472 11.3655534376 18.47391
216 2 8.1469312704 4.1850650199 19.25859
217 2 1.32735915 10.3224435367 19.56621
218 2 -1.0348782912 11.2873205051 16.22262
219 1 8.4534751548 3.9802926755 20.29182
220 1 1.8138796884 10.847700537 20.25075
221 1 -0.4297743684 10.8148595723 16.94421
222 3 10.1121746544 1.826691846 5.82198
223 3 10.3628244564 1.4820725537 8.31942
224 2 11.9912855868 1.7975095235 16.38579
225 1 11.0544116904 2.1276430731 16.04601
226 3 -1.2920655384 9.9219152305 14.97744
227 3 -0.6550047504 9.3896882067 19.788
228 3 8.7236709871 -0.0277528476 6.52179
229 3 -2.091426817 5.8158024693 19.56561
230 3 1.4222272896 2.5679203566 14.12883
231 3 -2.3745461688 7.9220641892 13.33254
232 3 0.9522401148 2.2290556744 19.53897
233 3 12.2141172348 1.7994194588 13.62603
234 3 -0.3214597136 1.0227715709 12.47658
235 3 -0.13372047 7.868722426 5.66412
236 3 1.3098949344 10.5463896468 15.1263
237 3 12.2182523658 0.1418995081 15.3456
238 1 9.843473484 6.4446672563 7.74672
239 3 -6.3934190527 11.1778216844 17.73018
240 3 -0.5854658098 2.8100480581 11.29299
241 3 8.528466024 2.253624387 9.33885
242 3 5.2610537772 4.7042325513 12.47361
243 3 6.5774503548 3.468826896 10.88829
244 3 6.682550706 11.1955319931 13.98894
245 2 6.4903870512 3.1077871214 13.58877
246 2 11.3213370816 4.4869836168 20.74743
247 2 6.485926122 4.9126387336 16.3593
248 2 9.9229968864 4.9467075139 16.05951
249 2 -0.6643832991 1.1036560888 19.61487
250 2 8.2492247448 2.0617379045 16.4439
251 2 3.1270039632 5.2480060019 16.60503
252 2 4.5931961088 1.7075565337 16.6311
253 2 1.1711407032 8.0342790867 16.3026
254 2 -0.9658377144 5.3679846622 16.69008
255 2 6.5423071116 7.1449809849 19.20813
256 2 10.258096446 6.6825038046 19.12464
257 2 4.6243438488 4.1062119786 20.30739
258 2 5.0662264536 8.1819890148 16.3173
259 2 2.88377878 1.1546439189 19.8675
260 1 7.2888790572 3.5639267893 14.02917
261 1 9.0172850508 5.0807874494 15.58593
262 1 4.6146844692 2.6104970302 17.10468
263 1 7.026106698 5.5592386337 15.59187
264 1 4.105558548 4.9351486849 16.75542
265 1 2.5807656888 1.7133111438 20.66028
266 1 -0.1125686484 5.5028583371 16.14747
267 1 7.0254551016 7.3768644883 20.07933
268 1 5.6130876828 8.8936383332 16.85367
269 1 -4.1249016526 7.7021363845 18.91464
270 1 11.1672237924 4.6412791009 21.77655
271 1 8.3335907257 1.0937938777 16.25382
272 1 0.1266746364 8.1194448362 16.39125
273 1 1.2087256428 1.8018006767 17.37393
274 1 4.6447438284 3.7875132362 21.29391
275 3 2.566251558 7.0876333185 17.72637
276 3 10.265758074 5.3010749173 9.6552
277 3 4.6050608916 10.9249660997 17.17572
278 3 2.7176510556 4.879872182 20.25276
279 3 6.2818762032 1.4263991811 12.61146
280 3 3.5795985264 3.4715181684 6.21102
281 3 8.1434584764 10.412086472 12.34572
282 3 5.1022499248 0.1086315365 11.01054
283 3 10.0852157484 1.2778583072 16.96017
284 3 6.6359508228 7.2941543699 5.76435
285 3 -3.8696448492 11.9733717302 11.91459
286 3 -5.7453459991 12.0114588158 20.25726
287 3 -2.1906499118 4.6394931874 8.29263
288 3 1.5364714716 10.3041131191 8.02008
289 3 1.21655196 7.6185581137 9.04446
290 3 1.4122385316 6.6010215017 11.13648
291 3 4.287969738 6.6163009838 15.62853
292 3 4.6345545792 2.0616882958 14.44848
293 3 1.0989209088 12.3001318876 19.6266
294 3 1.0425327588 8.2733310484 20.40405
295 3 8.4383953524 8.0074779822 13.13526
296 3 12.4622036136 2.3704528944 9.43035
297 3 9.8743849308 3.0921231718 10.96989
298 3 -5.7781134216 10.3913128256 7.94307
299 3 -1.949848524 10.6860629642 12.24171
300 3 3.0519987732 1.1712243893 13.02255
301 3 -0.3088924956 6.7972487462 12.5874
302 3 3.0781055916 8.800497984 16.03848
303 3 5.9644843128 6.6310967809 17.42712
304 3 2.5619481576 1.2732074908 5.18217
305 3 -2.2372526592 11.3381198221 6.33252
306 3 6.8649189336 4.4714312869 18.17364
307 3 11.6938926936 4.1240711135 12.21732
308 3 4.9709931336 5.974277487 19.80135
309 3 2.9294342064 2.7614687308 16.23567
310 3 3.565055754 10.8357944471 14.4879
311 3 -4.6274085 11.3593523491 14.43435
312 3 -4.18650687 10.6694068404 18.4731
313 3 -0.867465275 3.5253188123 20.6103
314 1 13.4644963565 0.8470290021 20.62278
315 3 -2.064593934 6.0040675162 11.08041
316 3 4.5654065964 6.6427424251 11.04129
317 3 6.4923203592 3.0851159418 6.55161
318 3 1.5983158464 6.3355032943 6.4626
319 3 6.5574799992 9.2900491167 19.5852
320 3 -2.25248283 9.9159001746 17.27583
321 3 5.0261998176 6.2192700915 6.68859
322 2 3.0409574364 5.1887608024 7.27803
323 2 3.2260179744 7.3161186254 10.17531
324 2 1.456282152 8.3020668925 7.06428
325 2 -0.2660661432 5.2590687438 6.95208
326 2 4.9697901864 8.1763832308 7.24383
327 2 1.0574550324 2.3990647167 6.89103
328 2 1.553520384 4.025449002 10.41726
329 2 4.9693462416 4.5050907953 10.23474
330 2 3.3821003736 11.1968094174 6.93291
331 2 -0.3243231576 6.8950647162 10.53288
332 2 -2.0344987728 8.3933469152 7.20975
333 2 -0.6804957744 9.475684902 13.23258
334 2 -2.5410254688 10.3780424962 10.36746
335 2 1.2279226752 10.2455376371 9.97503
336 2 -0.1316224728 11.6156309347 7.02201
337 2 -3.9169034892 11.3850868664 7.554
338 2 -2.0023686259 4.1666849936 10.17603
339 2 -2.215337539 5.9619125166 13.20639
340 2 1.3668415956 6.3293890211 13.50912
341 1 2.0058213708 2.6084878775 7.03452
342 1 -0.068059602 6.1731960039 7.53852
343 1 -1.3334956128 8.7132982775 7.89636
344 1 -4.0039954344 11.6707214049 6.52953
345 1 11.3477374764 3.8503674692 9.74544
346 1 5.8703966568 8.7070723846 7.08255
347 1 0.5141954844 8.3953932744 7.39161
348 1 3.1008685032 11.6342590045 7.86084
349 1 3.6712588068 4.9014767743 8.18625
350 1 4.4107992396 3.7903161282 9.63435
351 1 0.7050344652 4.172179158 9.91149
352 1 2.6552839716 8.0350356195 10.60059
353 1 -0.6574464468 10.7670367778 7.25937
354 1 1.6373042244 11.037379432 10.53579
355 1 -1.6793142912 10.5415279934 9.86601
356 1 -1.0603979568 7.2059624892 9.88218
357 1 0.9188082072 5.41337663 13.62057
358 1 -1.6892471981 5.2663984304 13.66971
359 1 -0.2560845456 8.5466626273 13.32765
360 3 4.6369747944 8.3582487543 18.7269
361 3 0.2884638744 3.6646448687 17.69169
362 3 4.6632319812 8.6522423601 13.96641
363 1 9.7286679266 0.7979734312 19.14069
364 1 3.9713082084 3.3924046813 19.95345
365 3 3.4213393656 9.0665122784 6.63741
366 3 11.8084805748 1.88288611 18.49635
367 3 -2.5538526094 6.2855597275 15.3675
368 3 1.3642996536 10.2288195025 17.604
369 3 6.7798175796 8.8733235673 15.39513
370 2 12.0193328736 2.0698241239 7.28364
371 2 10.2545663688 6.9199434833 10.57611
372 2 8.2371881124 8.2931249229 6.86988
373 2 10.2004480656 5.3809821437 7.46757
374 2 8.5518876924 4.1369817797 10.2627
375 1 11.3994713664 2.8049755677 7.32456
376 1 9.0002432988 8.072763042 7.49325
377 1 9.4033165356 4.7307236014 7.77942
378 1 7.8664584024 4.7833460384 9.67488
379 1 -3.5620340652 7.3929129053 9.73857
380 3 3.0235433436 3.045540595 11.18676
381 2 6.6152286252 1.4634940925 10.26237
382 1 5.7806768448 1.6107699444 9.52998
383 2 8.188884054 10.2268971651 19.36434
384 1 7.5682707048 8.0108389722 17.0079
385 1 -5.5975510469 10.0740527357 20.33544
386 1 8.8492089816 6.5532359137 23.14791
387 2 -2.472378714 8.3550613948 16.2003
388 1 -3.0011527728 8.5261990353 15.3243
389 1 2.5973133732 4.8095022297 17.45715
390 1 -1.4855180652 8.0935986993 15.88635