# LAMMPS data file written by OVITO Basic 3.8.0

392 atoms
9 atom types

0.0 14.3208 xlo xhi
0.0 12.402177 ylo yhi
0.0 30.0 zlo zhi
-7.1604 0.0 0.0 xy xz yz

Masses

1 1.0
2 1.0
3 1.0
4 6.941  # 3
5 14.0067  # 2
6 1.00794  # 1
7 6.941  # Li
8 14.0067  # N
9 1.00794  # H

Atoms  # atomic

1 3 -5.8869964689 10.239993864 3.36801
2 3 4.558990878 10.7490040124 3.192
3 3 6.6890022264 11.2670057392 4.59501
4 3 12.2029971336 2.2699952607 4.56099
5 3 10.1849937743 1.2080005648 3.32799
6 3 8.5429944756 4.2299981072 3.40101
7 3 4.8820036824 4.1369941819 3.32199
8 3 4.9020026796 2.2429957213 4.91901
9 3 6.4589958576 5.0740034586 4.674
10 3 6.7470014664 7.3210050831 3.28299
11 3 8.398003536 2.167999757 4.77501
12 3 8.5460018436 8.3279998446 4.842
13 3 0.9649927872 4.5540049813 3.18399
14 3 10.2649990716 5.7890013648 4.881
15 3 3.1700021652 5.1990050006 4.83201
16 3 3.6309958776 1.3599979255 3.0
17 2 10.2760046064 3.0740035912 4.086
18 2 8.5040053816 0.1459996679 4.128
19 2 12.0110001013 0.1009999809 4.45101
20 2 6.7069963116 3.2409989045 4.11501
21 2 5.0050050336 6.3329980546 4.203
22 2 3.2550032736 3.1500041319 4.13199
23 2 8.2890079272 6.1779956464 4.41099
24 2 4.7160045517 0.0109999993 4.35201
25 2 -5.9224012099 12.3452013989 4.30101
26 2 6.760992888 9.2770020265 4.17201
27 1 5.263001406 0.194999429 3.48801
28 1 1.3660016807 0.906999729 3.93801
29 1 2.2629942972 2.8730015086 3.999
30 1 12.4050049063 0.3870000115 3.53301
31 1 7.7519994084 0.6640001544 3.633
32 1 10.2139955424 3.6419984935 4.95399
33 1 8.7259999788 6.4350059604 3.504
34 1 4.082000832 6.776003817 4.01601
35 1 5.9070006216 9.1340049257 3.60099
36 1 6.5909906712 2.2180053347 3.96801
37 3 -2.4229980179 4.29199659 3.39501
38 3 1.25700822 10.5139951605 3.378
39 3 2.8830061728 11.6069990195 4.75701
40 3 -2.1629993112 10.3359991162 3.30999
41 3 -4.1500031508 11.2750051434 4.404
42 3 -0.4729945428 11.9039939521 4.84101
43 3 1.6709939064 8.2820001701 4.73601
44 3 -0.7190044056 5.3340026972 4.725
45 3 -2.3789927772 8.3569961344 4.848
46 3 4.8060031968 8.329004421 4.992
47 3 -0.5450066856 7.3780054886 3.384
48 2 3.209004864 9.6069991521 4.278
49 2 -0.3830026356 9.3290043546 4.089
50 2 1.1419907148 6.2290058004 4.39101
51 2 -2.2430010283 6.3580008434 4.125
52 2 -0.5209978644 3.4180027747 4.13001
53 2 -4.0579991712 9.4199991273 4.104
54 1 1.6979957748 6.5089973484 3.558
55 1 -3.0080024114 6.8820052238 3.65601
56 1 -0.7030009116 9.5290018609 5.05599
57 1 -0.0529998487 2.4960001321 4.01901
58 1 -4.0690032739 8.4240050968 3.816
59 1 3.3829954236 8.7780004349 3.67101
60 3 3.6644707476 11.2159955852 13.76931
61 2 3.5244992484 6.9180211458 19.383
62 1 4.0074897096 7.7849705247 19.15065
63 1 -1.2495828852 8.3838096411 7.00587
64 3 4.5801212184 10.5381297969 5.57337
65 3 3.2119549488 3.208517603 11.25213
66 3 0.7248544524 1.6292863947 14.87823
67 3 -2.3807542356 11.9449459405 6.17781
68 3 -2.478644064 10.2987181721 12.63567
69 3 6.7947398532 3.1683221473 16.36302
70 3 4.7605489776 1.7961576862 18.84708
71 3 -2.1496308444 12.0298512443 16.48629
72 3 9.146462247 0.26479268 17.23422
73 3 -4.0053287009 7.4349066767 7.56318
74 3 12.2727609108 1.7868436513 9.06648
75 1 1.8335421468 9.5679198924 9.65922
76 3 1.1469671928 8.7324968475 21.38424
77 2 2.9854729289 0.9177090089 10.23834
78 2 -0.3889486318 0.9526732263 10.30719
79 2 -5.9171497726 12.3351556355 13.81302
80 2 5.0758271895 0.0563206422 13.24929
81 2 3.2469120216 3.0632881103 13.35876
82 2 8.5871025396 3.7121576088 19.52835
83 2 1.5263896284 8.3097934488 16.06485
84 2 -0.4971265229 3.0982002385 13.12692
85 2 -0.4922775 5.1691033518 16.53975
86 1 -0.1437550546 1.524066325 9.40305
87 1 3.9351983112 1.250660333 9.91131
88 1 -3.1445899056 12.1531164815 13.33692
89 1 -4.974759504 12.5861012849 13.37145
90 1 2.7088652448 2.5784374027 14.12406
91 1 -0.7066942459 2.0479590858 13.1112
92 1 0.7570762524 7.9814582149 16.62978
93 1 -0.6799229424 5.8907860315 17.16036
94 1 9.5152622292 3.7870667578 20.02731
95 3 4.7867345604 11.810655168 19.3104
96 3 6.164889588 11.8903639596 9.21567
97 3 -3.87055422 9.4654407038 16.07169
98 3 1.5779087064 6.4093706605 11.1168
99 3 8.3678317585 0.2117758538 6.36804
100 3 0.6873482772 3.7030792152 21.16374
101 3 2.3097445488 11.3824452027 20.00406
102 3 6.8995437638 1.2228100044 7.83393
103 3 6.9047164368 7.3981714284 12.93153
104 3 2.7204722532 8.7820435446 11.41794
105 3 3.2325124572 3.0057048025 19.86894
106 3 11.2185781812 1.2618346945 17.51589
107 1 3.5637883632 2.9786556544 23.56209
108 3 2.2311376776 1.476702411 21.90828
109 3 7.1077638996 0.8905879282 16.44168
110 3 -1.999076274 6.2351324759 10.50045
111 3 -4.1152365446 9.4047940583 11.32815
112 3 3.183836058 5.3727595003 14.00202
113 3 3.4429279716 6.7215706622 12.2202
114 3 1.4764243572 2.2719920112 9.40347
115 3 8.0303886 1.7318399963 14.05698
116 3 -0.4953493116 6.4847882989 15.10464
117 3 -0.6501013085 3.4924158367 15.37464
118 3 1.3364600184 2.6713297084 12.66681
119 3 6.6931337772 2.7717253312 20.34903
120 1 3.8328045912 2.0838137795 13.20732
121 3 8.2663381008 2.1405165328 9.66498
122 3 10.4851727791 0.8857163531 15.01083
123 2 6.6539735496 11.0865788682 7.2762
124 2 6.9130583028 9.3894525653 13.47924
125 2 5.109017004 10.3946614134 10.06329
126 2 6.9980594112 7.5019280412 10.13511
127 2 8.8312292172 6.5154960891 13.16067
128 2 8.5774932828 7.9517177944 16.75434
129 2 5.2531988184 6.3221833562 13.36575
130 2 6.520152834 11.1763334231 16.5264
131 2 3.2342309532 11.4707859095 16.14276
132 2 3.1834851984 9.1474984942 13.43973
133 2 2.9938133628 3.3141965532 22.62282
134 2 -2.3590725444 8.2669067207 16.5279
135 2 1.6719032772 3.1740271487 22.73961
136 1 6.9735923244 12.1261913552 7.18962
137 1 4.2298559316 9.9729005801 10.04547
138 1 6.4601200404 7.9589854702 10.90467
139 1 7.9649497044 5.9305846175 13.24809
140 1 5.8945343652 5.4882485726 13.28592
141 1 7.2809596548 9.2808591035 12.48552
142 1 4.095354978 9.0184786469 12.94152
143 1 -1.6889665104 9.3333575188 20.03754
144 1 1.3302877536 3.0589969571 23.68641
145 1 3.7694708532 10.9813712007 16.90266
146 1 7.6417793712 8.4509426252 16.57302
147 1 5.7254271984 10.6356853212 16.7952
148 1 -1.8656637012 9.1518020497 16.62423
149 3 10.6795146276 3.41319073 15.4773
150 3 5.00744673 12.3998825973 6.53604
151 3 8.8897511664 8.2064709122 18.8193
152 3 -0.12459096 7.4737254907 12.2514
153 3 8.8218347724 8.3728957254 9.78561
154 3 4.8952002996 5.8181216764 20.32011
155 3 8.4478685616 6.2904833918 6.19356
156 3 1.5800067036 8.0795842393 18.64938
157 3 5.0094230004 3.8886653918 12.8574
158 3 -0.6350129136 11.3315714727 19.1547
159 2 4.96144116 12.3114922818 12.89397
160 2 1.008792954 1.819337355 16.86432
161 2 8.574982775 -0.0136968403 13.38117
162 2 10.304460036 3.3632471632 13.33929
163 2 10.1781183582 1.1553930104 10.46001
164 1 10.4501963732 0.2289057407 9.97584
165 1 12.7232739457 0.3100507043 13.55874
166 1 8.2898521384 0.2906090517 12.48417
167 1 11.0316917412 2.5620789312 12.93708
168 1 1.956794112 1.5053762443 16.41219
169 3 -2.6807835881 5.9427635553 15.56049
170 3 8.535483216 9.8686106737 17.33517
171 3 -2.2520388852 6.2490105119 6.4023
172 3 3.2651137584 7.2149912741 16.75782
173 3 -2.2287188945 4.18352715 12.62754
174 3 -4.157755143 7.0136667349 17.26125
175 3 1.3458043404 2.004104988 18.9795
176 3 9.536113314 3.8536664483 8.83827
177 3 -5.6280500546 11.7044925329 15.63492
178 2 -5.5454018537 10.4855321642 10.34094
179 2 -4.04079273 9.1365845785 13.65837
180 2 -4.0195048608 11.4174193418 16.83564
181 2 1.4746270968 9.6062798258 19.70103
182 2 12.2890365 1.9253139575 15.86319
183 1 8.3603971152 10.4869336102 11.3334
184 1 -3.7705305924 10.0231045926 14.2239
185 1 0.4920770088 9.9472156716 19.72035
186 1 -3.9751748244 11.8447363504 15.99165
187 1 13.2830002656 2.0482939446 16.32252
188 3 -5.9339652559 12.0137036098 20.30016
189 3 9.0147502692 2.7208267968 18.0888
190 3 -0.4323163104 9.9837276806 11.08023
191 3 8.8383609756 6.1227935566 15.9891
192 3 3.2349541536 5.049719996 9.86667
193 3 3.181473126 9.2771632548 20.03001
194 3 8.6672488968 6.6975724497 11.1615
195 3 -0.9738287208 2.9336481541 7.48017
196 3 5.7122162604 5.8186673722 11.292
197 3 -3.839084262 10.7038600882 18.74754
198 1 -2.1716132724 7.8479611817 17.47644
199 3 1.5884917776 10.8410653723 7.61916
200 3 6.1681762116 9.426708705 15.13827
201 1 6.0660474264 5.5008367822 7.93149
202 3 0.0723988044 5.0771908181 12.79506
203 1 4.7966731956 11.300975302 10.52397
204 3 1.2591993024 12.2798667304 10.07358
205 1 5.3046548849 1.1782539433 7.40004
206 2 6.6321343296 5.249345437 7.02597
207 2 4.927357656 2.156788189 7.31925
208 2 8.5647048084 2.3396334845 7.44768
209 1 9.2295980712 2.8464236433 6.85758
210 1 5.1956506836 2.5008121768 8.2902
211 1 7.493645016 4.6877748625 7.35768
212 3 6.6571814088 4.12593144 9.22482
213 3 5.4400852584 1.4816136731 14.42745
214 3 7.6161451392 4.8449104451 21.09585
215 3 1.5247212552 10.2554345744 12.77766
216 3 -4.6923819696 12.1127846019 11.71812
217 3 4.8619903644 6.3331840872 17.86941
218 2 -0.1351382292 11.3555200764 16.45962
219 2 6.5307788676 6.6123818959 20.84061
220 2 5.07421746 3.7739824611 19.83948
221 1 -0.8649261972 10.530080784 16.38132
222 1 7.5841023492 6.6360204452 20.53989
223 1 4.2931467072 4.3929255065 19.81011
224 3 1.2175486877 -0.1980330015 9.966
225 3 -0.3469915519 3.0437050728 11.10834
226 2 10.2881601014 0.5632870359 19.23327
227 1 10.9750100148 1.3155857296 19.4868
228 3 10.0980185436 5.2242806373 11.22879
229 3 10.2311217871 0.4638687046 12.31503
230 3 -3.7461995532 11.3238449164 9.75141
231 3 -0.0496858724 0.1939985733 12.0054
232 3 9.2460311892 1.8965285047 20.14356
233 3 2.8544820034 0.9346727066 8.17821
234 3 8.7394901724 8.0732095203 14.29458
235 3 6.8735042532 7.3811928481 7.97181
236 3 -5.850457807 11.9714369906 6.36039
237 3 7.1267962428 9.3601586233 6.31095
238 3 5.5058177304 10.306978022 12.5085
239 3 4.9410769824 6.0004708848 6.18573
240 1 10.83207411 5.4092467051 7.94172
241 3 6.685164252 3.4575781215 11.40018
242 3 4.9898822688 3.3876794519 21.80382
243 3 -2.3181293772 12.242350145 11.4102
244 3 0.0671931936 3.5540174498 17.7234
245 3 14.0674270979 0.5137639029 17.43258
246 3 1.5510715272 10.303827869 17.16204
247 2 6.65970903 2.985910928 13.19931
248 2 10.2815395956 4.9499692864 16.6806
249 2 6.4418825016 4.9850302408 16.72593
250 2 8.6816413008 1.8788057937 16.09917
251 2 13.7540794014 0.3661928792 19.48533
252 2 2.9433912581 1.0560056846 20.04114
253 2 1.4728727988 7.1321323296 22.73661
254 2 5.225624118 1.774143822 16.67406
255 2 5.040420372 8.1948872789 16.24599
256 2 1.232591256 3.9127876261 19.2168
257 2 10.2965334732 7.0101693209 19.6044
258 2 -5.4517180442 10.1148062894 19.38201
259 2 6.2433052765 0.6586138889 19.98852
260 2 3.1141080828 4.9986106246 16.5906
261 2 -2.2031333532 10.2035314636 20.46705
262 1 6.8928230124 3.6957371264 13.87665
263 1 8.8974342756 2.6183600104 15.41226
264 1 4.2529840236 2.01420036 16.47123
265 1 6.0232067532 4.9348386305 15.80268
266 1 1.8445405212 7.8374937443 23.35449
267 1 -1.7193982104 10.2325401556 21.37341
268 1 0.7401991896 4.8954617185 19.43346
269 1 -3.2301366365 6.4000938321 19.15002
270 1 3.9167173188 4.6439827755 16.09659
271 1 8.06153634 9.8787060458 20.10087
272 1 9.2923303356 4.4768510382 16.98258
273 1 3.7416455388 1.4607160049 20.55891
274 1 5.3876496492 8.857324759 16.9152
275 1 13.4532831701 -0.1614912272 20.41422
276 1 7.0374502037 0.5186689639 20.61996
277 3 -0.4389038784 11.6033527794 13.63476
278 3 1.6476008796 7.8269518938 14.058
279 3 9.6105886344 5.2942413178 18.88455
280 3 6.8466241116 6.927074735 17.00529
281 3 -2.6023328136 8.2320938099 14.34156
282 3 12.232415637 1.013127638 11.27274
283 3 6.6285161795 1.0596333214 12.34482
284 3 6.5597928084 4.7880712679 18.85923
285 3 -0.6492560949 1.2316366337 5.38956
286 3 0.9992481408 10.0683601365 5.73672
287 3 1.53554778 6.1089899336 16.43166
288 3 2.699793018 0.5754238063 17.90466
289 3 8.6559068232 3.9983626474 12.62931
290 3 -2.2362845731 4.7692695675 17.24997
291 3 -0.0182733408 7.0159363333 8.25789
292 3 -5.6866264229 10.1257326073 13.70898
293 3 2.2920153984 6.4037152678 20.83044
294 3 1.211647086 11.9408780265 15.13383
295 3 5.1763534056 9.8152068996 7.94511
296 3 12.1834277604 2.2336692842 14.12151
297 3 3.3688464732 9.622687906 15.61938
298 3 0.5118755148 3.7807664519 5.67423
299 3 0.1198364544 6.9334618562 5.71671
300 3 6.7770751464 10.6269789929 18.5646
301 3 1.4084005572 4.0290828398 8.19459
302 3 -4.0275574466 9.0658177565 20.73513
303 3 10.721123712 1.4675744088 5.73462
304 3 -3.627924066 9.6269046462 6.43803
305 3 6.732673506 11.4043102408 14.05605
306 3 2.5619481576 1.2732074908 5.18217
307 3 4.9136669712 8.0188011698 13.99845
308 3 2.5932391056 5.1228928403 23.21064
309 3 10.4207019696 2.8758664115 11.0361
310 3 -5.9030172195 10.230952677 8.11221
311 3 6.8668737228 9.4182504203 10.00299
312 3 1.981139472 3.4442829877 16.87902
313 3 7.2496257444 3.2472992104 6.42444
314 3 -0.9376830216 11.4604300917 9.21402
315 3 4.7206440684 3.8104572637 17.2872
316 1 -1.1135209644 1.365219242 19.5366
317 3 1.4842005516 6.1819767452 6.68679
318 3 3.0432201228 7.2884493685 8.39397
319 3 4.999069062 12.312769706 15.82581
320 3 0.2013218064 9.683297345 15.53595
321 3 5.4412810452 6.6031794805 15.456
322 3 -2.563888626 12.1003948271 20.61213
323 3 10.0282382975 0.9832979219 7.92633
324 2 3.199338324 5.4103256945 7.0356
325 2 3.0474375984 7.3458590458 10.23384
326 2 1.3701640212 8.2454261501 6.8526
327 2 -0.1948631256 5.2782425094 7.00071
328 2 5.2244927748 8.2170499692 7.14336
329 2 1.1294958168 2.3687165896 7.35702
330 2 1.565227638 4.1471019561 10.26147
331 2 5.024166264 4.1918862173 10.69449
332 2 3.1662286344 11.4837709888 6.90003
333 2 -0.3281110092 7.0005204272 10.35222
334 2 -2.280157776 8.1870739074 7.18089
335 2 -0.3500146728 9.2190590555 13.02285
336 2 -2.2171319352 10.3102770011 10.5726
337 2 1.5107083524 10.3873565311 10.12275
338 2 -0.2208553776 11.6655124906 6.91866
339 2 -4.253062788 11.5823931003 7.26108
340 2 -2.0403044251 4.1352206706 10.44984
341 2 -2.1141152604 6.3056760586 13.66449
342 2 1.706036904 6.0406043296 13.00671
343 1 1.101484332 1.4360232705 7.51575
344 1 -1.0142778204 5.2223458977 7.68072
345 1 -2.2056323328 8.7937139931 7.95069
346 1 -3.5285949972 11.0826969868 7.91598
347 1 12.0180654828 4.4981827827 9.55257
348 1 4.457635416 7.4829031017 7.04679
349 1 1.1816664912 8.7402358059 7.69458
350 1 3.6588426732 11.0910312497 7.71318
351 1 3.8377739088 5.3153002143 7.83501
352 1 4.8668594364 3.3089132258 10.22673
353 1 1.3225760028 4.5888923052 11.14059
354 1 1.9612980036 7.6563723514 9.88188
355 1 -0.6455673432 10.7470072619 6.98226
356 1 2.492463636 10.7561104599 10.57641
357 1 -2.3971873536 9.9329779724 9.65094
358 1 -0.0020335536 7.9448097818 10.06422
359 1 1.4511839472 5.1745355054 13.41798
360 1 -1.9313890128 6.5590649369 12.63024
361 1 -1.3377632112 8.9535780547 13.00293
362 3 -1.9549538892 8.4243895643 10.47795
363 3 -0.1539629208 4.9724048246 9.73614
364 3 2.8962958752 5.1939821189 18.49542
365 1 6.5320319376 7.590479585 21.19254
366 1 6.7002827206 1.0992619975 19.15986
367 3 6.7200640416 7.2195552752 5.36667
368 3 3.2185568376 9.1593301711 6.89337
369 3 10.2730043988 5.2860434788 13.9548
370 3 4.9971429144 7.816174402 9.71277
371 3 -3.8634224616 7.5194275129 12.8646
372 2 11.924106714 1.8494002321 7.25556
373 2 -3.6707275051 7.2824467148 10.74132
374 2 8.6370463296 8.242189182 7.18995
375 2 10.1962377504 5.1785786151 7.07805
376 2 8.7051202524 4.0394510598 10.46778
377 1 11.3752906956 2.8007960341 7.22358
378 1 8.8888203144 9.0727629756 6.51456
379 1 10.6243938684 4.2763326405 6.91266
380 1 7.9885647036 4.86823894 10.26234
381 1 -3.7578896222 7.1374528635 9.65145
382 3 3.4936092828 3.5638027675 6.62334
383 2 6.6909484231 0.7955773306 10.35675
384 1 5.7502945516 1.13453999 9.94971
385 2 5.2669253052 9.9462358996 19.78176
386 1 5.2642759572 9.1199780635 19.26363
387 1 5.6991628512 9.7551307542 20.66436
388 1 10.1152679472 6.427973926 20.38353
389 2 7.1880248232 3.2395726542 22.55484
390 1 7.747123176 3.7372720172 23.25108
391 1 0.823159584 6.6364545214 23.30001
392 1 6.9666109344 2.2570473879 22.75896
