# LAMMPS data file written by OVITO Basic 3.8.0

392 atoms
3 atom types

0.0 14.3208 xlo xhi
0.0 12.402177 ylo yhi
0.0 30.0 zlo zhi
-7.1604 0.0 0.0 xy xz yz

Masses

1 6.941  # Li
2 14.0067  # N
3 1.00794  # H

Atoms  # atomic

1 3 -5.8869964689 10.239993864 3.36801
2 3 4.558990878 10.7490040124 3.192
3 3 6.6890022264 11.2670057392 4.59501
4 3 12.2029971336 2.2699952607 4.56099
5 3 10.1849937743 1.2080005648 3.32799
6 3 8.5429944756 4.2299981072 3.40101
7 3 4.8820036824 4.1369941819 3.32199
8 3 4.9020026796 2.2429957213 4.91901
9 3 6.4589958576 5.0740034586 4.674
10 3 6.7470014664 7.3210050831 3.28299
11 3 8.398003536 2.167999757 4.77501
12 3 8.5460018436 8.3279998446 4.842
13 3 0.9649927872 4.5540049813 3.18399
14 3 10.2649990716 5.7890013648 4.881
15 3 3.1700021652 5.1990050006 4.83201
16 3 3.6309958776 1.3599979255 3.0
17 2 10.2760046064 3.0740035912 4.086
18 2 8.5040053816 0.1459996679 4.128
19 2 12.0110001013 0.1009999809 4.45101
20 2 6.7069963116 3.2409989045 4.11501
21 2 5.0050050336 6.3329980546 4.203
22 2 3.2550032736 3.1500041319 4.13199
23 2 8.2890079272 6.1779956464 4.41099
24 2 4.7160045517 0.0109999993 4.35201
25 2 -5.9224012099 12.3452013989 4.30101
26 2 6.760992888 9.2770020265 4.17201
27 1 5.263001406 0.194999429 3.48801
28 1 1.3660016807 0.906999729 3.93801
29 1 2.2629942972 2.8730015086 3.999
30 1 12.4050049063 0.3870000115 3.53301
31 1 7.7519994084 0.6640001544 3.633
32 1 10.2139955424 3.6419984935 4.95399
33 1 8.7259999788 6.4350059604 3.504
34 1 4.082000832 6.776003817 4.01601
35 1 5.9070006216 9.1340049257 3.60099
36 1 6.5909906712 2.2180053347 3.96801
37 3 -2.4229980179 4.29199659 3.39501
38 3 1.25700822 10.5139951605 3.378
39 3 2.8830061728 11.6069990195 4.75701
40 3 -2.1629993112 10.3359991162 3.30999
41 3 -4.1500031508 11.2750051434 4.404
42 3 -0.4729945428 11.9039939521 4.84101
43 3 1.6709939064 8.2820001701 4.73601
44 3 -0.7190044056 5.3340026972 4.725
45 3 -2.3789927772 8.3569961344 4.848
46 3 4.8060031968 8.329004421 4.992
47 3 -0.5450066856 7.3780054886 3.384
48 2 3.209004864 9.6069991521 4.278
49 2 -0.3830026356 9.3290043546 4.089
50 2 1.1419907148 6.2290058004 4.39101
51 2 -2.2430010283 6.3580008434 4.125
52 2 -0.5209978644 3.4180027747 4.13001
53 2 -4.0579991712 9.4199991273 4.104
54 1 1.6979957748 6.5089973484 3.558
55 1 -3.0080024114 6.8820052238 3.65601
56 1 -0.7030009116 9.5290018609 5.05599
57 1 -0.0529998487 2.4960001321 4.01901
58 1 -4.0690032739 8.4240050968 3.816
59 1 3.3829954236 8.7780004349 3.67101
60 3 12.4542842112 2.3176692291 9.71289
61 2 2.5157277756 7.2505731199 19.737
62 1 3.4360110252 7.749115831 19.45659
63 1 -1.89983313 9.4489334062 7.87503
64 3 2.8777934016 9.4019663619 6.40023
65 3 10.0817429544 2.2698216302 6.29991
66 3 -0.3806683452 1.3415930948 16.43673
67 3 6.996355236 11.8344549456 14.32947
68 3 -5.9776136222 10.8223008785 13.02495
69 3 -0.3672354348 10.8142642678 21.15252
70 3 3.0653171172 6.683719218 17.66976
71 3 -0.6119922276 9.6997798382 10.81719
72 3 11.1384962676 1.2430826029 17.53926
73 3 8.3835824904 4.6353632625 5.64483
74 3 -0.3490838208 3.303815931 10.90605
75 1 1.8843380244 11.0655323738 10.54125
76 3 4.3528716036 6.2778207691 20.36607
77 2 2.9126287476 1.4924407736 10.27776
78 2 -0.6077446783 1.3886345522 10.45962
79 2 1.2107377152 0.4492068509 13.31853
80 2 4.7017556492 0.3468008352 13.14225
81 2 3.330516852 3.5379194241 13.22658
82 2 6.816808206 1.2624051947 19.15338
83 2 1.5324401664 8.8657210328 16.38666
84 2 -0.5010919524 3.5246863012 13.20165
85 2 -0.568929582 5.4558044775 16.02048
86 1 13.6516162255 0.5451525726 11.03403
87 1 3.711485934 1.6935792802 10.92756
88 1 4.6339173036 1.3843930076 13.34775
89 1 0.7201639608 0.1108265978 12.51384
90 1 3.6863314488 3.4412320522 14.25981
91 1 -0.6495342048 4.5915835776 13.13466
92 1 0.653780322 8.5162400871 16.90518
93 1 -0.1317728412 6.3182766705 16.46547
94 1 7.4805701256 1.9196833691 18.58863
95 3 3.1914117612 1.4584340043 7.95501
96 3 1.1476116288 8.4990382676 9.87168
97 3 3.6380273904 7.6136716559 22.54854
98 3 3.1261017528 3.7487812374 10.98024
99 3 8.2755399308 0.2939427569 6.4614
100 3 2.9867746896 4.8321362027 19.04937
101 3 4.8452937437 0.6458656912 15.58776
102 3 0.8461015056 10.2598001407 8.22792
103 3 8.304918336 8.4490078856 11.14485
104 3 -0.5137801812 7.8779496456 12.63543
105 3 1.0364392584 3.298210147 18.13641
106 3 2.5844819364 11.1888100132 21.91278
107 1 5.6028554712 6.6461530238 23.2503
108 3 1.287475722 5.9748851937 20.32806
109 3 6.734821626 3.3772988298 17.3838
110 3 9.5055813684 8.7276475963 9.03813
111 3 -2.3434127496 8.2027998678 10.0518
112 3 6.1450123176 2.9961179197 14.96148
113 3 5.138016624 5.8415741931 11.56434
114 3 1.0924908696 1.417072744 10.90872
115 3 10.8562977432 1.6842900497 20.77215
116 3 -1.9238276304 6.2016838045 11.33769
117 3 -0.5260674276 3.7381277674 15.3345
118 3 4.58784729 10.8788051969 12.86853
119 3 1.1320377588 4.9774277063 16.52139
120 1 3.0100961124 2.5819472187 12.97317
121 3 7.9604243316 6.2954566648 10.31436
122 3 6.739869708 3.8278327136 10.69461
123 2 6.7750487532 11.7053606853 7.22886
124 2 6.5938261896 9.8816825683 13.58949
125 2 4.9601308068 10.9424283649 10.37469
126 2 6.4420400304 7.6306874428 10.39782
127 2 8.3858451768 6.5665062431 13.94646
128 2 8.4600555624 8.6981180128 16.65687
129 2 4.7748268152 6.6989366891 13.5747
130 2 6.789562884 11.8229457254 16.16568
131 2 3.2815540368 12.146915393 16.70298
132 2 3.1490150328 9.6656862537 13.30284
133 2 5.3398038564 6.3326631958 22.24344
134 2 -2.11195998 8.6478147829 16.47408
135 2 5.6569021704 7.3114802112 21.31944
136 1 6.7708455984 12.7690333957 6.87156
137 1 5.6549044188 11.4827168038 9.82698
138 1 5.4864130464 7.375649075 10.29198
139 1 7.93748241 6.700958244 12.95793
140 1 4.0109768244 7.2081824789 12.93858
141 1 6.4222057224 10.2183024564 12.58593
142 1 3.1931016156 8.6800480409 13.0422
143 1 8.4318650676 4.3603697918 24.11022
144 1 6.6175485948 7.4748788931 21.15117
145 1 9.6070871988 0.3519117724 16.53834
146 1 8.2957029012 9.7871903817 16.64169
147 1 -6.7926926948 11.8066740692 16.90176
148 1 -1.016705196 8.3252093548 16.27785
149 3 8.7433782696 5.0194090754 17.06199
150 3 6.7692774708 9.4901086339 6.29949
151 3 0.0454971816 5.9026425127 14.22435
152 3 8.1344363724 8.702123916 14.12055
153 3 8.3717177076 2.0234771884 10.37079
154 3 -5.1921564084 12.3194172729 19.86612
155 3 10.349606358 1.3111209459 12.58965
156 3 3.0666632724 11.5601808013 18.91848
157 3 11.992005207 0.5540858607 10.9878
158 3 -4.1720571828 9.7645440065 15.53016
159 2 11.8486239253 0.6108407031 13.08753
160 2 1.1587245696 2.4818988569 16.31928
161 2 8.4422161418 0.5481439777 13.16985
162 2 10.281152934 3.64049783 13.7862
163 2 9.9874619676 1.2947500723 10.16658
164 1 9.6814909152 0.2622316305 10.05051
165 1 12.8213685616 0.2072416179 13.30881
166 1 8.4427037651 0.2360047468 12.18102
167 1 9.9966129588 2.8873136208 14.39418
168 1 1.7125242264 3.2723888145 15.9789
169 3 -3.9099507408 11.7215951349 14.01195
170 3 4.9660667784 4.4552340437 21.6762
171 3 11.98543554 0.4743584659 6.31992
172 3 1.366240122 11.2489605717 16.41996
173 3 13.242014136 1.8549192008 12.56505
174 3 8.2845899604 2.2058139947 14.02956
175 3 8.5308504372 4.4404134422 14.43849
176 3 -0.546374322 5.5042473809 9.6849
177 3 5.3368680924 5.4042610299 17.51274
178 2 -5.7490565184 10.2682460232 10.30368
179 2 -4.1674315644 9.81509528 13.4424
180 2 -3.9135452616 11.7601659054 16.19532
181 2 1.8102493656 10.8172531925 20.08983
182 2 12.1194639072 2.2649103681 16.24749
183 1 8.0948823228 11.1802277067 10.26729
184 1 -4.4743320367 9.1291432723 12.79569
185 1 1.1346942672 10.9501053125 19.43127
186 1 -3.8359408464 12.2460087872 17.11086
187 1 -1.5300895503 2.8893847844 16.80183
188 3 6.779216106 9.7451966104 15.59877
189 3 3.0731863968 2.1774750202 16.6809
190 3 1.04702949 2.4014211303 14.08167
191 3 8.8238182032 7.1637206744 15.77979
192 3 9.8619974388 7.045490721 12.59613
193 3 10.7240093532 5.4188955988 14.65677
194 3 3.150003168 9.3221211464 15.99126
195 3 8.277279192 4.1192342644 8.46597
196 3 1.4960796552 4.4389375831 12.47484
197 3 1.3064722632 8.9778119085 13.91034
198 1 -1.9556770896 8.9334865279 17.53755
199 3 10.7128319688 6.017437063 9.26253
200 3 -5.0008548658 10.9757034058 17.86902
201 1 6.9834808368 5.4926017367 7.91727
202 3 3.3712452072 5.5727446045 13.81956
203 1 4.0382579484 10.8831211545 9.89901
204 3 -2.0458408464 11.3607661973 8.2683
205 1 5.2131435408 3.1656804836 7.77813
206 2 6.6180283416 5.2540334599 6.93882
207 2 4.91615163 2.4852102381 7.06242
208 2 8.2585117836 2.4192802652 7.07739
209 1 8.5587258744 2.2125979855 8.12217
210 1 5.2628080752 1.4837964563 7.18803
211 1 5.9663460168 4.5026599686 7.13955
212 3 6.055442874 7.8915920403 12.52878
213 3 -2.443343292 8.8218917393 13.54182
214 3 10.2813247836 4.2635087895 20.91366
215 3 4.4675740512 8.2673407969 9.2682
216 3 2.5511717556 7.1037065399 15.56544
217 3 7.2185052139 0.933427528 21.85839
218 2 -0.6153934176 11.8112380703 16.29834
219 2 8.7734089872 4.3145189435 19.6557
220 2 5.0681955636 4.70946627 19.5291
221 1 7.1348473966 0.2724088569 15.94815
222 1 9.38101905 3.644069657 19.07073
223 1 4.8459367476 3.7950289555 19.11276
224 3 -0.193832028 9.9006082904 15.66801
225 3 -1.1255590289 3.4636551882 6.33609
226 2 9.353129292 1.1855489038 21.75258
227 1 9.9281022516 1.3560664354 22.58571
228 3 -2.18965032 10.7784591828 16.57311
229 3 -4.2805515636 12.0192349808 9.37563
230 3 -2.2066061472 10.9425647889 12.46851
231 3 -0.0264770111 0.6481290885 8.59575
232 3 -2.0557007172 6.873819787 15.48048
233 3 -2.501557344 12.0877818131 6.1149
234 3 12.1004530452 0.5183737921 15.57318
235 3 10.3856732928 3.0640570453 10.38975
236 3 -5.7089396614 11.9506261376 6.44127
237 3 7.9520251824 10.444245317 8.12001
238 3 4.9082895108 10.7667639299 16.96566
239 3 4.7673656784 6.0776372301 6.17265
240 1 9.9267704172 5.0000492771 7.11273
241 3 2.9019883932 0.3944512395 12.00009
242 3 7.2353980296 5.6907885252 22.07898
243 3 6.633645174 1.6760674063 12.47541
244 3 4.7460634884 2.3388397452 9.70002
245 3 6.6805314732 5.630799195 19.01871
246 3 7.2290252736 10.4896620892 20.24643
247 2 6.9354703548 3.5024119913 13.28937
248 2 10.3659392304 5.7258866861 16.47852
249 2 6.886836918 5.973297715 16.58427
250 2 8.166328794 2.8985003845 16.17978
251 2 5.3469141336 11.2531649097 20.45427
252 2 3.4270676856 1.3462563133 20.06919
253 2 12.0190679388 3.1361260958 21.40554
254 2 4.9998996684 2.3762199067 16.61823
255 2 4.7222408376 8.6997302958 16.60932
256 2 1.0721123712 4.0957693455 19.88418
257 2 -1.6554773196 12.0731844507 22.34109
258 2 -5.162738621 10.2974283457 19.64778
259 2 6.03764928 2.6522303558 22.4844
260 2 3.2534423064 5.3262637388 16.67736
261 2 8.75699019 4.7795385701 23.14653
262 1 7.146294012 4.3756368717 12.92931
263 1 8.7563314332 2.1572966783 16.47669
264 1 4.5976427172 3.311939357 16.7484
265 1 6.573641022 5.070245599 16.01874
266 1 -2.486288507 3.8694668218 22.11609
267 1 9.628017048 5.1681111777 23.47854
268 1 1.0888677072 4.0605223585 20.91126
269 1 -1.6485532128 12.6467479304 23.17098
270 1 3.444832638 4.4251339601 16.09929
271 1 -4.4209713038 10.0574338186 20.28666
272 1 -3.379654381 6.1125617606 17.23119
273 1 3.1765711162 0.9205838335 19.1727
274 1 4.5968121108 8.5402507018 17.67219
275 1 5.7354302772 12.0521255542 19.9443
276 1 6.78107781 3.1614761456 23.0478
277 3 -2.4710039172 12.0604598171 20.60253
278 3 6.6654301896 6.4063693337 14.51535
279 3 -3.9325160254 7.8508756932 16.89561
280 3 4.7786934312 6.750430528 15.98127
281 3 1.2777089364 10.8016884603 12.30243
282 3 -0.4426272864 11.9872249619 13.87743
283 3 5.21008605 3.7600796207 12.3447
284 3 4.8897798768 1.625875796 21.42828
285 3 -0.2223970117 1.1666219415 5.21247
286 3 0.992753658 6.5778790394 11.5704
287 3 -4.1362265412 9.867159619 11.49843
288 3 3.2699828304 5.642568861 9.73266
289 3 11.7926632512 2.5413548934 14.21727
290 3 10.3651873884 3.4344728657 15.95844
291 3 3.4615951344 9.1786527629 11.38089
292 3 -0.511896996 7.2817149864 7.43232
293 3 1.7011606716 8.7843999582 18.67284
294 3 -0.649054458 11.9279301537 18.55305
295 3 5.0682958092 10.4513021557 7.53498
296 3 5.2063007761 0.1061581703 10.71705
297 3 6.9938705772 3.3949595298 20.12385
298 3 0.9843831504 3.991119776 5.54856
299 3 -2.169188761 6.1676894373 6.0342
300 3 8.4035721791 0.6535240355 20.09436
301 3 1.160844048 4.5052644257 7.59552
302 3 8.6696762724 8.6385999654 18.67752
303 3 4.5432523188 10.6362682235 5.22996
304 3 -4.2473058264 9.5253184144 6.21537
305 3 1.7849767338 0.4892844859 15.29799
306 3 2.5619481576 1.2732074908 5.18217
307 3 -2.530219566 4.5470101535 12.87081
308 3 2.2188217896 2.7410051388 20.52681
309 3 2.9417858964 11.630228297 14.20908
310 3 1.89249372 2.9291957726 9.33306
311 3 -2.1300457183 4.7885921593 16.68174
312 3 6.6102091848 7.7527248645 16.93335
313 3 6.6710367828 2.9560464858 6.24525
314 3 1.097939934 10.5984167793 5.86152
315 3 9.1107712332 2.8429634359 22.57605
316 1 5.3505444564 11.5906653524 21.44253
317 3 1.523589912 6.4277010781 6.6357
318 3 2.6298430704 7.4223804779 8.23584
319 3 6.6750466068 1.398010598 16.92807
320 3 -0.9775779062 4.0762607211 20.13069
321 3 2.344744584 8.9452934004 20.77653
322 3 5.1367707144 1.5099898541 18.28698
323 3 10.2458099156 0.7944450119 8.28414
324 2 3.0773394288 5.5624011889 7.29477
325 2 2.9844260784 7.6376078576 10.23858
326 2 1.3418661204 8.6672489943 7.0719
327 2 -0.3575330928 5.5137350463 6.95265
328 2 4.9951451628 8.553645053 7.32429
329 2 1.4176732752 2.5239174326 7.10712
330 2 1.3430619072 4.5307136929 10.30971
331 2 4.7564102664 4.2535498413 10.31808
332 2 3.2916502008 11.4432654787 6.67083
333 2 -0.636416352 7.5616073169 10.51917
334 2 -2.341414998 8.7620016266 7.18989
335 2 -0.5042425284 9.6220429928 13.11408
336 2 -2.30475375 10.6135474352 10.26234
337 2 1.0746399924 10.5761672738 10.16655
338 2 -0.5819829912 11.4791821833 7.08024
339 2 -3.8306063484 11.6940747042 7.37373
340 2 -2.2077604037 4.4080685646 10.16586
341 2 -2.310911694 6.6353507277 13.28391
342 2 1.4753144952 6.4364570151 13.28571
343 1 0.378212328 2.493680925 7.18641
344 1 -0.52163514 4.8366257908 7.78044
345 1 -2.9335371156 8.1028755277 7.69212
346 1 -4.3177212 10.9881551915 7.93659
347 1 11.761064406 4.3045847997 11.18766
348 1 4.5213414948 7.4651059777 7.29708
349 1 0.4265378676 8.9671088298 6.51012
350 1 2.9516171256 11.0173251118 7.53966
351 1 3.7293726132 5.0035714954 7.75206
352 1 5.4605711628 4.6832728722 9.59055
353 1 1.5738272784 5.3671165098 9.88629
354 1 3.2293189188 7.1599876191 11.20548
355 1 -0.8841160692 10.8154796812 6.32367
356 1 0.4916545452 11.3004296062 9.80589
357 1 -2.8719576756 10.1677387808 9.55803
358 1 -0.3557787948 7.6979940574 9.48075
359 1 2.0287847736 7.0762853265 12.8052
360 1 -3.1738816699 7.0294174997 13.59594
361 1 -1.0195621956 9.7232199528 13.95987
362 3 6.6634395984 7.7840279592 8.19492
363 3 4.8229089012 8.8476510609 14.36724
364 3 5.0892972624 9.3289423438 21.01197
365 1 9.1936600236 5.2838358913 19.37577
366 1 5.5306356768 2.2809339808 23.28441
367 3 7.0848362988 7.1181922826 5.77152
368 3 7.0601429434 0.774386971 8.29044
369 3 11.5007051016 4.3497163218 7.93572
370 3 6.4578716748 9.633899474 10.03326
371 3 8.8033967424 3.9583532244 12.41964
372 2 11.9363939604 2.3924667585 6.90264
373 2 9.7678310184 7.3704897693 10.72593
374 2 8.1964597572 8.4723859892 6.82686
375 2 10.4677744392 5.9339208031 6.97026
376 2 8.4556232748 4.1870121617 10.45284
377 1 12.7660766688 1.9286377409 7.37172
378 1 8.7084498384 7.6944098282 7.16127
379 1 9.8842591224 6.7067500606 7.13157
380 1 9.2742002028 4.7330304063 10.42542
381 1 10.4095532268 6.6610976471 11.02248
382 3 3.2383123812 3.4024504447 6.402
383 2 6.6770515188 1.4406740869 9.9996
384 1 7.0302869395 0.8847117767 10.83876
385 2 3.3752836728 9.479256729 22.85868
386 1 2.905976736 9.4618192681 23.79921
387 1 4.2841675656 9.8503050605 23.00874
388 1 -2.4262012944 11.4721129424 22.67877
389 2 -1.547756262 10.6146140225 19.43205
390 1 -2.5448204808 10.299412694 19.59591
391 1 12.6341248176 2.6941249097 22.03722
392 1 -0.9279377172 9.7892491431 19.40823
