ITEM: TIMESTEP 
0
ITEM: NUMBER OF ATOMS
384
ITEM: BOX BOUNDS xy xz yz
-7.1604 14.3208 -7.1604 
0 12.402177 0
0 30.0 0
ITEM: ATOMS id type x y z
1 3 -5.887 10.24 3.368
2 3 4.559 10.749 3.192
3 3 6.689 11.267 4.595
4 3 12.203 2.27 4.561
5 3 10.185 1.208 3.328
6 3 8.543 4.23 3.401
7 3 4.882 4.137 3.322
8 3 4.902 2.243 4.919
9 3 6.459 5.074 4.674
10 3 6.747 7.321 3.283
11 3 8.398 2.168 4.775
12 3 8.546 8.328 4.842
13 3 0.965 4.554 3.184
14 3 10.265 5.789 4.881
15 3 3.17 5.199 4.832
16 3 3.631 1.36 3.0
17 2 10.276 3.074 4.086
18 2 8.504 0.146 4.128
19 2 12.011 0.101 4.451
20 2 6.707 3.241 4.115
21 2 5.005 6.333 4.203
22 2 3.255 3.15 4.132
23 2 8.289 6.178 4.411
24 2 4.716 0.011 4.352
25 2 -5.9224 12.3452 4.301
26 2 6.761 9.277 4.172
27 1 5.263 0.195 3.488
28 1 1.366 0.907 3.938
29 1 2.263 2.873 3.999
30 1 12.405 0.387 3.533
31 1 7.752 0.664 3.633
32 1 10.214 3.642 4.954
33 1 8.726 6.435 3.504
34 1 4.082 6.776 4.016
35 1 5.907 9.134 3.601
36 1 6.591 2.218 3.968
37 3 -2.423 4.292 3.395
38 3 1.257 10.514 3.378
39 3 2.883 11.607 4.757
40 3 -2.163 10.336 3.31
41 3 -4.15 11.275 4.404
42 3 -0.473 11.904 4.841
43 3 1.671 8.282 4.736
44 3 -0.719 5.334 4.725
45 3 -2.379 8.357 4.848
46 3 4.806 8.329 4.992
47 3 -0.545 7.378 3.384
48 2 3.209 9.607 4.278
49 2 -0.383 9.329 4.089
50 2 1.142 6.229 4.391
51 2 -2.243 6.358 4.125
52 2 -0.521 3.418 4.13
53 2 -4.058 9.42 4.104
54 1 1.698 6.509 3.558
55 1 -3.008 6.882 3.656
56 1 -0.703 9.529 5.056
57 1 -0.053 2.496 4.019
58 1 -4.069 8.424 3.816
59 1 3.383 8.778 3.671
60 3 6.69422 4.94622 19.119
61 2 -0.567215 6.8956 19.4578
62 1 0.229705 7.11538 20.1578
63 3 -3.80401 9.90431 6.25681
64 3 3.12522 6.70346 12.4417
65 3 4.1455 7.75903 14.2808
66 3 -4.53828 11.7019 9.40008
67 3 3.14782 7.14158 17.4128
68 3 1.19126 12.3221 10.7254
69 3 5.03754 12.0858 19.9468
70 3 1.23081 0.442579 11.2253
71 3 5.51009 9.7143 14.7191
72 3 -0.26404 8.39557 18.0757
73 3 1.34591 1.89012 18.7485
74 3 10.3836 1.37572 8.29298
75 3 0.441073 10.7937 12.5404
76 3 8.47343 1.91788 14.8502
77 2 3.21381 1.12648 10.3213
78 2 -0.412381 1.2535 10.3526
79 2 1.28406 0.0309603 13.3724
80 2 -2.32839 12.1522 13.5348
81 2 2.95498 2.90336 13.6198
82 2 -0.385313 0.925521 19.3991
83 2 1.47827 1.71134 16.7334
84 2 -0.388661 3.24138 13.2482
85 2 -0.519873 4.6826 16.4329
86 1 -0.625519 1.78452 9.52805
87 1 3.03381 1.92526 9.82453
88 1 4.33563 0.524627 14.0929
89 1 2.00953 0.446786 13.9588
90 1 3.8239 2.40913 13.4233
91 1 -1.30866 3.06563 13.5377
92 1 1.81305 1.89286 15.7293
93 1 -1.13364 4.35278 17.0748
94 1 0.305693 0.481799 20.1385
95 3 -5.67914 12.1358 18.9243
96 3 2.9692 1.15436 7.59958
97 3 -0.33113 2.88493 20.4187
98 3 1.74947 8.02391 19.2231
99 3 2.93397 3.08658 11.0528
100 3 -0.542362 1.19685 13.0113
101 3 -3.85146 11.0308 19.6284
102 3 4.72606 6.49054 6.28117
103 3 -0.730742 11.3847 9.42483
104 3 8.92775 0.410027 6.24165
105 3 -4.14649 8.87894 20.0273
106 3 10.195 5.03847 14.3916
107 3 5.13296 9.58846 17.4842
108 3 -0.10367 3.19412 11.064
109 3 -0.688807 8.24066 8.26196
110 3 2.96567 7.38332 7.00074
111 3 -0.399646 5.03878 14.3829
112 3 6.54202 11.2463 18.3725
113 3 -0.320801 8.38044 15.7372
114 3 -0.236341 1.16668 17.2163
115 3 0.862841 10.3803 15.2813
116 3 -0.459182 6.5039 17.4911
117 3 4.82431 10.558 8.28634
118 3 10.2816 0.928412 17.2512
119 3 8.55586 1.13689 19.0557
120 3 3.03581 4.44943 14.6455
121 3 -5.63695 12.1871 16.2178
122 3 -5.01625 8.98998 10.6217
123 2 6.41805 11.1641 7.21223
124 2 6.8275 9.68036 13.2242
125 2 4.71414 10.3403 10.6838
126 2 6.48313 7.16417 10.7123
127 2 8.37934 6.23374 13.7613
128 2 8.38094 8.08164 16.9267
129 2 4.58451 6.0988 13.4284
130 2 6.80113 11.0538 16.438
131 2 2.68969 11.1134 16.45
132 2 3.32536 9.23341 13.8309
133 2 4.70704 8.09413 16.3195
134 2 4.95449 10.169 19.3383
135 2 1.27976 7.81331 16.823
136 1 5.96745 12.0332 7.27387
137 1 5.54214 10.4913 9.93626
138 1 7.33461 7.72821 10.5507
139 1 7.58519 5.77106 13.2506
140 1 5.51955 6.0905 13.1535
141 1 7.50046 8.87852 13.1599
142 1 2.93435 9.79443 12.9133
143 1 5.01444 7.12555 16.2693
144 1 1.60031 7.71495 15.8204
145 1 3.58508 11.5933 16.0914
146 1 7.34138 8.02393 16.507
147 1 6.86397 9.98273 16.4018
148 1 5.16793 10.1473 20.3924
149 3 7.33076 4.68643 14.5497
150 3 1.25268 12.2834 16.6976
151 3 6.79959 6.547 17.4084
152 3 8.58902 5.78424 15.9687
153 3 7.86343 0.450608 8.87447
154 3 4.85497 5.47274 15.3095
155 3 1.14581 2.28146 13.9268
156 3 11.5959 1.76414 14.6284
157 3 -0.457061 7.32155 13.2689
158 3 5.03038 0.663733 20.3684
159 2 12.0294 0.0515961 13.5938
160 2 11.922 1.71298 16.5604
161 2 8.15192 0.140461 13.2327
162 2 9.9723 2.82755 13.7173
163 2 10.2014 1.08797 10.2815
164 1 9.77856 1.77399 10.9282
165 1 4.44097 11.554 13.8656
166 1 0.212108 12.2908 13.831
167 1 10.501 3.06083 12.7925
168 1 12.3777 2.59374 16.9728
169 3 10.2182 3.14213 16.1206
170 3 1.54427 9.90704 17.5524
171 3 -2.07901 5.89573 20.3474
172 3 -5.93643 11.7651 6.3321
173 3 6.27012 0.591239 18.0236
174 3 7.83596 9.97369 8.09284
175 3 6.68755 1.21335 6.87562
176 3 0.83476 6.67234 8.66071
177 3 2.76228 5.05013 18.6396
178 2 -5.87547 10.5316 10.4868
179 2 -4.13229 9.09994 14.1069
180 2 -4.07956 11.0008 16.9373
181 2 -2.19797 7.87743 16.8896
182 2 8.43938 10.0315 19.4566
183 1 7.74601 11.2535 10.2161
184 1 -4.79836 8.95126 13.3578
185 1 -2.2625 7.21129 17.7772
186 1 -3.12653 11.4457 16.8333
187 1 8.14328 10.1979 20.4254
188 3 5.01491 4.57038 7.6192
189 3 6.61754 2.77184 16.014
190 3 6.76136 9.64431 11.3218
191 3 -3.92469 11.0403 14.655
192 3 1.15957 3.69527 17.371
193 3 8.23488 10.0976 14.8647
194 3 -2.35506 8.14731 10.4397
195 3 -2.45116 6.342 6.2217
196 3 4.69326 10.4589 5.94368
197 3 -2.47314 8.05584 19.334
198 3 3.69174 11.1872 18.3442
199 3 11.2939 0.59242 6.35982
200 3 5.09168 9.93541 12.5709
201 3 6.47691 7.15136 8.06411
202 3 -5.86682 10.6428 12.3846
203 3 3.38383 11.6332 10.1644
204 3 -2.61517 10.2667 12.9843
205 3 3.23695 3.68663 6.22719
206 2 6.79865 5.44415 7.26111
207 2 4.87775 2.46781 7.20092
208 2 8.50732 2.28203 7.20308
209 1 8.91484 2.98889 7.81889
210 1 4.80953 2.67521 8.27976
211 1 7.09382 4.54705 7.59178
212 3 4.53794 4.21095 12.7043
213 3 -2.80488 5.99143 11.6797
214 3 3.13627 5.16441 9.8988
215 3 11.2772 4.52881 18.3926
216 3 1.23543 5.85464 16.3069
217 3 6.74332 5.42662 9.61835
218 2 -0.584767 11.0226 16.9472
219 2 1.14177 9.58989 19.8429
220 2 -2.2914 9.80344 19.8065
221 1 -1.05948 10.3105 16.4665
222 1 1.01484 9.41103 20.8394
223 1 -2.28362 10.4067 20.7811
224 3 -2.76637 10.1786 8.51028
225 3 8.92222 7.66128 15.0344
226 2 -2.1751 3.80544 19.8821
227 1 -1.98964 3.62607 20.8251
228 3 1.08185 3.90985 5.40076
229 3 6.94056 11.6673 14.171
230 3 10.0436 5.1699 10.1513
231 3 2.50363 11.6218 14.1686
232 3 -0.581371 9.04398 11.1595
233 3 -2.27126 12.2465 10.9777
234 3 -0.599493 3.08992 15.4
235 3 2.94894 9.38747 6.61449
236 3 -4.11694 9.10992 16.0201
237 3 8.80134 3.72389 17.9279
238 3 13.5613 0.461797 5.46283
239 3 6.44871 3.82695 11.9243
240 3 -2.70495 6.52801 8.62871
241 3 -2.36803 6.1489 16.0327
242 3 5.70913 1.13932 8.52365
243 3 3.2449 2.75841 20.676
244 3 6.87453 3.38578 6.27805
245 3 3.13298 0.900586 12.5516
246 3 0.911649 4.35006 7.9347
247 2 6.79352 3.06991 13.7017
248 2 10.0948 4.98869 16.4964
249 2 6.62971 4.82797 16.4777
250 2 8.77568 2.00252 16.8414
251 2 10.3378 0.481748 19.7164
252 2 8.3931 4.11565 19.9262
253 2 6.79728 0.436045 19.8249
254 2 5.06748 1.97104 17.205
255 2 10.2412 6.89368 19.8922
256 2 4.90299 3.63905 19.9058
257 2 1.40904 3.70019 19.306
258 2 3.08501 0.707533 19.7232
259 2 6.58795 6.81076 19.4436
260 2 3.34348 6.89971 19.4686
261 2 3.24128 4.95004 16.4157
262 1 5.78469 2.97262 14.0873
263 1 7.70627 1.93844 17.1689
264 1 4.92234 1.20766 16.4301
265 1 6.91525 4.2485 17.2924
266 1 7.0268 0.377165 20.8584
267 1 3.06222 5.76859 15.8512
268 1 5.42801 4.08841 20.6401
269 1 1.83913 4.34591 20.0005
270 1 2.70443 6.74698 20.2189
271 1 2.5385 0.43218 20.587
272 1 11.023 4.60375 16.2554
273 1 8.00084 3.64545 20.8307
274 1 -3.98501 6.95228 20.9449
275 1 10.1357 0.291885 20.735
276 1 6.78615 7.02853 20.4362
277 3 -0.499225 4.86019 19.0129
278 3 12.0177 1.79547 10.5077
279 3 4.00529 2.46832 18.6939
280 3 10.0129 4.83934 20.7713
281 3 4.83724 8.32241 10.0381
282 3 3.70627 8.97961 20.2021
283 3 12.2972 1.86668 18.6853
284 3 6.21616 7.63933 12.5688
285 3 -2.08284 3.75305 12.3887
286 3 1.62948 8.78806 9.36637
287 3 5.56596 12.3258 11.1785
288 3 -4.30275 7.60022 7.35151
289 3 5.04782 4.06576 17.2073
290 3 2.99123 9.27811 10.7982
291 3 10.0603 6.89369 17.3164
292 3 5.08119 5.98961 11.2608
293 3 10.1174 2.52741 6.17965
294 3 -2.6214 8.08105 14.6572
295 3 10.0147 7.00127 12.9709
296 3 8.67257 5.25859 6.41432
297 3 8.38581 6.27823 19.8793
298 3 1.5201 8.47671 13.6423
299 3 8.50419 6.41175 11.1156
300 3 6.2866 1.03042 13.3717
301 3 1.07988 6.85055 11.1757
302 3 8.78706 8.06665 18.9003
303 3 -1.59714 11.9221 15.4304
304 3 7.67391 2.72118 9.67026
305 3 8.00298 2.27691 12.6591
306 3 2.56195 1.27321 5.18217
307 3 -0.832416 3.22618 6.41038
308 3 -0.777874 5.27123 9.46659
309 3 -0.512634 10.8022 19.2868
310 3 3.178 9.08628 15.7485
311 3 3.58528 2.8315 16.0336
312 3 7.1108 6.92043 5.93979
313 3 9.94446 1.02082 12.8547
314 3 11.5784 4.08918 7.63261
315 3 0.056765 0.510373 8.35574
316 3 10.3586 2.48178 19.9667
317 3 5.20144 12.2011 15.5683
318 3 3.37868 0.553079 17.7346
319 3 1.48447 4.14154 12.4688
320 3 1.5969 2.553 9.14602
321 3 6.72786 9.59365 6.40103
322 3 1.15854 10.6379 7.52553
323 3 5.01765 2.13416 10.6503
324 2 2.83659 5.4416 6.93903
325 2 3.00134 7.16147 10.4096
326 2 1.27937 8.51261 7.59777
327 2 -0.618728 5.32616 7.30919
328 2 4.64029 8.56157 6.98344
329 2 1.22044 2.4505 7.16762
330 2 1.39452 4.15839 10.052
331 2 4.73739 4.15431 10.7866
332 2 3.26709 11.4612 6.94322
333 2 -0.64766 7.36658 9.96825
334 2 -2.63324 8.46459 7.17683
335 2 -0.40395 9.23284 13.6412
336 2 -2.19163 10.2789 10.2978
337 2 1.32301 10.277 10.7245
338 2 -0.495197 11.8316 7.55605
339 2 -4.10373 11.6217 7.01854
340 2 -2.4698 4.4541 10.7218
341 2 -2.56087 6.33162 13.4919
342 2 1.0246 6.05934 13.0048
343 1 0.639575 1.93088 6.49619
344 1 -0.861271 6.12721 6.77724
345 1 -1.77273 8.76729 6.74752
346 1 -4.62947 10.9858 7.58052
347 1 11.6755 3.59486 10.065
348 1 4.22139 8.53063 7.94214
349 1 0.628715 8.60177 6.81811
350 1 2.93655 11.0313 7.9358
351 1 3.18679 5.11976 7.87697
352 1 4.58596 3.69335 9.85656
353 1 1.18235 4.89471 10.7345
354 1 3.24998 7.02305 9.48192
355 1 -0.726392 10.787 7.32197
356 1 1.02148 10.5859 9.62446
357 1 -3.0258 10.0957 10.946
358 1 -0.843905 6.77564 10.8252
359 1 1.27189 5.85565 14.0173
360 1 -1.78081 5.77739 13.2034
361 1 -0.80475 10.2867 13.563
362 3 -0.730142 8.86309 20.4855
363 3 8.50367 9.66256 17.5892
364 3 1.27184 6.53975 6.34003
365 3 1.62983 11.3927 20.0401
366 3 4.89529 7.53727 18.5888
367 3 -2.56861 9.81388 17.5778
368 3 -2.48966 11.9829 6.24106
369 3 6.74985 2.32249 19.9444
370 3 4.78822 5.6712 20.194
371 3 8.93193 4.43425 12.9092
372 2 11.8083 2.28535 6.92775
373 2 -3.98811 7.16397 10.5745
374 2 8.18042 8.39094 7.39341
375 2 10.4683 5.78544 7.54382
376 2 8.11507 4.16179 11.0631
377 1 12.1718 2.02405 7.819
378 1 8.38594 7.62609 8.11197
379 1 9.62675 5.45828 8.0527
380 1 8.89444 3.53258 11.2933
381 1 -3.89329 7.42166 9.55411
382 3 6.75373 8.91997 19.353
383 2 6.55997 0.9879 10.1105
384 1 6.4916 1.08519 11.1012
