# LAMMPS data file written by OVITO Basic 3.8.4

392 atoms
3 atom types

0.0 14.3208 xlo xhi
0.0 12.402177 ylo yhi
0.0 30.0 zlo zhi
-7.1604 0.0 0.0 xy xz yz

Atoms  # atomic

1 3 -5.8869964689 10.239993864 3.36801
2 3 4.558990878 10.7490040124 3.192
3 3 6.6890022264 11.2670057392 4.59501
4 3 12.2029971336 2.2699952607 4.56099
5 3 10.1849937743 1.2080005648 3.32799
6 3 8.5429944756 4.2299981072 3.40101
7 3 4.8820036824 4.1369941819 3.32199
8 3 4.9020026796 2.2429957213 4.91901
9 3 6.4589958576 5.0740034586 4.674
10 3 6.7470014664 7.3210050831 3.28299
11 3 8.398003536 2.167999757 4.77501
12 3 8.5460018436 8.3279998446 4.842
13 3 0.9649927872 4.5540049813 3.18399
14 3 10.2649990716 5.7890013648 4.881
15 3 3.1700021652 5.1990050006 4.83201
16 3 3.6309958776 1.3599979255 3.0
17 2 10.2760046064 3.0740035912 4.086
18 2 8.5040053816 0.1459996679 4.128
19 2 12.0110001013 0.1009999809 4.45101
20 2 6.7069963116 3.2409989045 4.11501
21 2 5.0050050336 6.3329980546 4.203
22 2 3.2550032736 3.1500041319 4.13199
23 2 8.2890079272 6.1779956464 4.41099
24 2 4.7160045517 0.0109999993 4.35201
25 2 -5.9224012099 12.3452013989 4.30101
26 2 6.760992888 9.2770020265 4.17201
27 1 5.263001406 0.194999429 3.48801
28 1 1.3660016807 0.906999729 3.93801
29 1 2.2629942972 2.8730015086 3.999
30 1 12.4050049063 0.3870000115 3.53301
31 1 7.7519994084 0.6640001544 3.633
32 1 10.2139955424 3.6419984935 4.95399
33 1 8.7259999788 6.4350059604 3.504
34 1 4.082000832 6.776003817 4.01601
35 1 5.9070006216 9.1340049257 3.60099
36 1 6.5909906712 2.2180053347 3.96801
37 3 -2.4229980179 4.29199659 3.39501
38 3 1.25700822 10.5139951605 3.378
39 3 2.8830061728 11.6069990195 4.75701
40 3 -2.1629993112 10.3359991162 3.30999
41 3 -4.1500031508 11.2750051434 4.404
42 3 -0.4729945428 11.9039939521 4.84101
43 3 1.6709939064 8.2820001701 4.73601
44 3 -0.7190044056 5.3340026972 4.725
45 3 -2.3789927772 8.3569961344 4.848
46 3 4.8060031968 8.329004421 4.992
47 3 -0.5450066856 7.3780054886 3.384
48 2 3.209004864 9.6069991521 4.278
49 2 -0.3830026356 9.3290043546 4.089
50 2 1.1419907148 6.2290058004 4.39101
51 2 -2.2430010283 6.3580008434 4.125
52 2 -0.5209978644 3.4180027747 4.13001
53 2 -4.0579991712 9.4199991273 4.104
54 1 1.6979957748 6.5089973484 3.558
55 1 -3.0080024114 6.8820052238 3.65601
56 1 -0.7030009116 9.5290018609 5.05599
57 1 -0.0529998487 2.4960001321 4.01901
58 1 -4.0690032739 8.4240050968 3.816
59 1 3.3829954236 8.7780004349 3.67101
60 3 8.7717549348 8.3883240335 13.29753
61 2 -0.315809442 7.3088385475 19.79397
62 1 -0.4900148136 6.537559562 20.4159
63 3 1.4065388532 2.14859035 9.76818
64 3 10.3212296928 3.4865744113 19.00338
65 3 9.470917872 5.5500238162 18.3741
66 3 2.8129416588 2.8544726561 19.92009
67 3 3.2248007064 9.0826599129 20.22564
68 3 3.2212777896 9.4651678559 6.32892
69 3 1.6038007128 10.6387858654 17.23344
70 3 -3.9407118192 12.1239713655 14.51484
71 3 6.7986780732 11.305390477 9.22674
72 3 3.1545715032 7.2277407121 17.41893
73 3 -5.8874384088 12.3164779569 6.55779
74 3 4.6306593216 10.2290923504 8.31396
75 3 4.8259577995 0.2996018702 10.79463
76 3 4.6611912672 8.3352303138 18.79071
77 2 3.173669006 1.1851631961 10.22385
78 2 -0.4698081648 1.1659063359 10.36728
79 2 1.403242205 0.2006349782 13.10457
80 2 4.5489018744 0.1987076799 13.1331
81 2 3.4525945116 3.2218251389 13.73484
82 2 -0.334479469 1.1555405963 19.69092
83 2 1.329041844 2.1511327963 16.6656
84 2 -0.4544061444 3.2985450058 13.51581
85 2 -0.313768728 5.5688007122 16.49967
86 1 12.8465502563 1.0038979379 10.64277
87 1 3.3089067648 2.186354979 10.68111
88 1 -2.027861082 11.8114489073 13.43883
89 1 -5.9449865436 12.3909406276 14.04768
90 1 3.9168175644 2.9264796958 12.86892
91 1 0.5010776316 3.643995244 13.97382
92 1 1.0485618156 1.6979448465 15.83097
93 1 0.0882376092 6.1389907998 17.39442
94 1 13.3827296008 0.8891381137 20.4546
95 3 6.3304666776 9.5509909208 15.72216
96 3 8.8571162113 0.3082151822 15.55824
97 3 -1.8038694492 6.0501416037 11.04861
98 3 10.6394213999 0.5680234273 8.35842
99 3 -2.4959779603 6.7998035947 6.33288
100 3 10.4318149104 5.7554038673 9.36924
101 3 -0.0491489856 5.4325255913 9.22209
102 3 1.249203384 4.1621954056 5.55504
103 3 7.1742625344 9.9044777696 6.39516
104 3 1.2601373148 6.1901869864 19.79595
105 3 -2.2803167369 6.0738545662 16.22748
106 3 -0.1825472376 9.366099266 10.65216
107 3 8.5229310348 1.6137588691 9.35373
108 3 7.6406709413 0.6958712689 17.62074
109 3 3.060641376 10.0813328136 14.93097
110 3 -2.2359136644 12.2548763438 19.83474
111 3 -1.0557938196 7.4324882522 8.43957
112 3 7.1860915152 1.209807562 7.70784
113 3 -2.1793321836 10.0506622299 12.37008
114 3 -2.1062173392 8.4487598421 10.90134
115 3 6.501786408 5.0050721588 19.77711
116 3 -2.3800954788 8.3598486352 20.57655
117 3 -2.2455945252 8.3969311444 14.09538
118 3 8.673275161 0.1170813877 6.49395
119 3 8.7146203976 2.2619338456e-04 11.23836
120 3 8.3123436708 10.0464702941 17.12856
121 3 -3.9263981796 9.8031395813 10.6872
122 3 10.5231601332 5.158747534 13.80333
123 2 6.5652705144 11.4385030427 7.25322
124 2 6.8869371636 9.6187440137 13.35318
125 2 5.2982592156 10.2215146203 10.41522
126 2 6.9460391052 7.2801895186 10.09224
127 2 8.3339609184 6.5460674554 13.29504
128 2 8.0535954564 8.3403028042 16.05924
129 2 5.1847811964 6.415708173 13.27215
130 2 6.9334368012 11.4216980929 16.2327
131 2 8.3747895192 2.024010482 16.31106
132 2 3.1652333388 9.390196696 12.96246
133 2 5.1033101652 8.4017183847 16.79466
134 2 4.775521374 10.2942905949 19.29762
135 2 1.5369583788 10.235653102 19.45932
136 1 5.6535367824 11.8537527331 7.76796
137 1 5.8769197812 10.9944430953 10.64565
138 1 6.7956707052 6.3221957584 10.38321
139 1 8.1678897612 5.5140699051 13.16817
140 1 6.1585597944 6.3046218736 13.34976
141 1 6.2207478684 9.0491120241 12.80337
142 1 2.6795434068 10.3417165198 13.05789
143 1 4.309952166 8.7406698821 16.22751
144 1 0.996691878 10.5727690773 20.30034
145 1 7.363540548 2.1400204457 16.359
146 1 8.8356686652 7.8358070482 15.68814
147 1 6.4305117864 12.3146176304 16.09128
148 1 4.7431778472 10.6150480987 20.34558
149 3 7.163729586 3.8014532832 9.42708
150 3 5.6646067608 5.7275485778 8.98224
151 3 6.8883477624 4.5960483614 11.47221
152 3 -4.1852609604 11.4457087076 18.48621
153 3 9.6360438564 3.3260530344 15.21117
154 3 10.015573698 4.4657386876 11.61861
155 3 -2.4800475024 10.3177431116 17.37288
156 3 -4.0627966392 9.804516223 6.34164
157 3 1.187695548 6.2065702622 11.08812
158 3 12.1097186028 2.4538575347 9.28977
159 2 12.0144251354 0.5261921244 13.49706
160 2 12.2717727756 2.022187362 16.24902
161 2 0.9473424012 12.1644644734 13.40841
162 2 10.1464371684 3.3124602484 13.28145
163 2 10.2111943939 1.0140168741 10.65384
164 1 10.2984309792 1.8168941261 10.02333
165 1 12.231431798 0.1570227228 12.56208
166 1 0.576734418 11.3824079962 13.81518
167 1 9.7901070228 2.3164662179 13.17024
168 1 11.6684303112 2.7731267772 16.66017
169 3 5.0801749128 6.3626888663 15.90267
170 3 3.3957624168 1.3953689343 17.37669
171 3 1.6930694196 8.7100117006 9.32202
172 3 3.0893832216 7.6046180667 7.65534
173 3 10.8064814083 1.0927955024 17.41521
174 3 -3.8732250492 11.446998534 12.3081
175 3 -3.4286272207 8.0472269595 8.20659
176 3 1.2665458728 8.5271416007 18.5157
177 3 -0.7553219544 1.8267290525 14.71803
178 2 -5.7922953098 10.4640888002 10.14432
179 2 -4.0693555656 9.5449634627 13.00779
180 2 -3.8217274524 11.4347947918 16.41687
181 2 -2.0977752276 8.3371030425 16.35756
182 2 -5.7971171232 10.4005276431 19.07844
183 1 8.5452858036 9.789521991 10.95411
184 1 -3.610130472 10.0787035521 13.76523
185 1 -2.421181854 9.2743603628 15.96282
186 1 -3.9689882388 10.5710327725 15.78747
187 1 -5.9983057462 10.6469589001 20.05902
188 3 -0.3927350513 1.3803498979 12.43011
189 3 2.6584989912 5.3628501609 14.21136
190 3 5.930207478 2.5786234353 11.50068
191 3 2.6708721624 5.6661329973 9.15939
192 3 1.4150239272 6.4599467383 15.74352
193 3 6.6359329218 0.7328632422 12.83088
194 3 -0.3069162252 7.1986079983 12.7518
195 3 10.9506932964 1.440053978 6.09828
196 3 3.53562651 11.8547821138 19.37094
197 3 7.2279368928 1.423794724 14.59758
198 3 4.7183742216 3.68379383 22.43523
199 3 11.20298283 2.1574703087 11.7603
200 3 -5.5983372588 12.3024510947 16.8078
201 3 4.8153761604 1.6909996274 14.45367
202 3 1.4008463352 4.2618096912 16.92027
203 3 6.8385185388 7.6077806219 17.55015
204 3 -0.3305383848 9.1538484089 20.21226
205 3 1.1244400732 0.0792482987 11.03001
206 2 6.838038792 5.4560153145 7.23741
207 2 4.9927249476 2.2056651686 7.06677
208 2 8.7865411608 2.1322566829 7.5387
209 1 9.7222049496 2.5458692859 7.81935
210 1 5.5444337676 3.0771165376 7.3953
211 1 6.0888174984 4.7208638707 7.31793
212 3 8.6288261904 8.4691986298 9.10323
213 3 8.1167716656 9.9713255036 14.83035
214 3 -0.1463370948 11.2643144668 18.6051
215 3 4.703702562 6.5216475689 20.24277
216 3 8.5720387049 0.0900989634 19.76385
217 3 -0.2335636555 1.0855030224 8.25204
218 2 -0.268801416 11.4175929723 16.74264
219 2 3.5097989472 11.482456358 16.40472
220 2 -2.0740313412 10.0686949953 19.63539
221 1 -0.8020578852 11.0982989255 15.92781
222 1 4.4757297468 11.2169877593 15.85272
223 1 -2.78217342 10.2623797935 20.39475
224 3 2.9845406448 3.0080240096 15.62742
225 3 4.1790314124 3.8180225916 17.56122
226 2 11.8394851068 4.088514072 19.87251
227 1 11.3415437304 4.181493193 20.80488
228 3 6.018781626 2.6901190065 20.69604
229 3 -4.4215770737 9.2884740402 19.72278
230 3 6.8521877424 7.7107558975 14.44494
231 3 -0.2261397528 7.3522337648 5.98422
232 3 4.8977207604 10.2212913811 12.72855
233 3 -0.6870146026 3.2381091973 6.46266
234 3 11.2267768392 4.129924941 6.93465
235 3 8.3047464864 5.851446326 6.03384
236 3 8.7168776292 6.3087269942 15.16839
237 3 0.8015566572 10.4735268569 12.20709
238 3 11.7385234668 2.521002921 14.24979
239 3 8.325969912 7.0117692018 19.86285
240 3 -0.5232075638 3.2340040767 11.09097
241 3 8.9373105432 4.2260418128 7.14585
242 3 -5.6892013027 10.5417512326 7.97406
243 3 1.24161336 2.0097975872 13.34877
244 3 -1.8271407492 7.7584918768 18.30819
245 3 -3.967130831 7.7917421133 16.91352
246 3 3.0152659212 5.1529433152 19.13478
247 2 6.6155436828 2.7858886173 13.12977
248 2 9.8575651512 5.3268838476 16.0956
249 2 4.8074710788 2.1040417302 16.58235
250 2 8.165827566 4.2547528525 19.18371
251 2 10.015860114 1.4330591502 19.32054
252 2 -2.9692889928 8.4638408893 22.68798
253 2 6.8011949538 0.9883480884 19.35099
254 2 4.7682965304 4.1546300776 20.49333
255 2 -3.9574829081 7.3446064259 19.53726
256 2 3.0853519164 7.2919467824 19.47324
257 2 8.2913636988 7.460293933 22.47228
258 2 2.9773329862 1.1851346711 19.32336
259 2 6.5930528664 7.2811444862 19.3782
260 2 1.4824462536 8.5977347922 16.4556
261 2 3.0910802364 5.0875590381 16.62267
262 1 7.135231194 3.2217507258 13.92333
263 1 8.3932705116 4.5436491635 20.19651
264 1 3.9922881804 4.7664666755 20.77875
265 1 5.5307072808 2.7359202462 16.21191
266 1 6.8315614942 1.2190174186 20.34
267 1 3.5383188204 4.5836833909 15.73233
268 1 2.5379393364 7.7326457399 20.28483
269 1 8.1832774608 6.9542479049 23.38026
270 1 2.2619059164 8.7865083283 15.87597
271 1 3.3137493433 1.0175949022 20.34108
272 1 10.1093176548 4.5488828822 16.83387
273 1 -2.7474741216 9.4311610866 22.55883
274 1 -3.3759481579 6.6012323387 19.07538
275 1 10.3277814588 1.6792919723 20.22795
276 1 6.5979577404 7.1429966366 20.43624
277 3 10.2585117492 6.9323084537 21.60468
278 3 -0.5680058904 11.4407354346 9.29052
279 3 3.3343548264 9.77333715 18.16326
280 3 4.7853454428 7.9442764882 10.01544
281 3 -2.4158616768 10.6499478247 8.15628
282 3 5.5491882732 1.6965806071 18.41676
283 3 3.3568742844 3.2976272447 6.57048
284 3 4.8329191404 10.9860344193 5.72931
285 3 6.537194586 7.3730818243 6.28716
286 3 5.072319954 11.0123022301 17.46699
287 3 -0.4598423201 2.9807764267 20.26863
288 3 -0.3642280668 7.422244054 16.09365
289 3 -4.3750545228 11.9315763937 9.55788
290 3 1.4461931484 3.8283908116 8.07075
291 3 -0.0782202096 9.7055468505 16.71246
292 3 6.629384736 8.2808839742 8.32059
293 3 11.8661933988 2.1546674167 19.28073
294 3 -0.255411468 5.4040253886 14.10432
295 3 -1.9575488182 4.3398317867 12.61554
296 3 7.9893451872 3.9240239984 17.35686
297 3 2.8306758215 1.1240378265 12.32535
298 3 5.1985623171 0.0486211226 16.18329
299 3 4.7711606904 6.3199013557 6.48519
300 3 10.0419168096 0.1688432377 13.12794
301 3 -0.4612457585 1.4143814716 17.40297
302 3 8.2596502872 2.9403329275 12.1176
303 3 1.4238025776 4.2938569166 12.56307
304 3 3.460173079 0.8375512585 7.96605
305 3 -6.0802507958 10.8405072743 12.52305
306 3 2.5619481576 1.2732074908 5.18217
307 3 3.0274600824 9.3866868799 10.98285
308 3 8.298151758 2.2372907199 18.97875
309 3 8.493344262 6.4376352219 11.33205
310 3 0.8066477016 9.9905736824 5.77182
311 3 6.5875966416 3.3444702672 6.24831
312 3 8.0402126688 6.3765048915 8.43843
313 3 4.588885548 2.6274508062 8.73816
314 3 3.9718309176 11.816124528 11.13015
315 3 6.617749086 11.5291257501 14.2971
316 3 4.5257523012 5.836873768 11.26332
317 3 3.9579898644 7.9093767622 13.79709
318 3 1.5229601548 0.1134296907 19.9257
319 3 -0.6477369444 5.1841719969 18.62274
320 3 6.5897376012 7.4887941357 12.17877
321 3 13.6798289176 0.9464857801 5.62338
322 3 -3.819805601 7.2484027389 12.29547
323 3 1.2248866656 8.2275546131 13.51815
324 2 3.0065015916 5.3030096569 7.34787
325 2 3.05158347 7.3053163292 10.28547
326 2 1.4557737636 8.4599342035 6.99504
327 2 -0.3343978404 5.4784508527 7.07637
328 2 4.9806525132 8.2821117897 7.06101
329 2 1.409846958 1.9367859712 7.15725
330 2 1.2136376772 4.2618468977 10.20345
331 2 5.3298222588 4.1815800082 10.18323
332 2 3.2674408884 11.3243410035 7.21737
333 2 -0.5126201964 7.2351944204 10.33383
334 2 -2.1315579948 8.473278946 7.06965
335 2 -0.5860859004 9.1932253208 12.67464
336 2 -2.0704941036 10.4579001139 10.24701
337 2 1.2946074804 10.542061287 10.25133
338 2 -0.159175692 11.5196876934 7.09713
339 2 -4.2274213956 11.5593126489 7.2993
340 2 11.663360748 4.06315162 10.72215
341 2 -2.078198694 6.2941668384 13.27698
342 2 1.3397180004 6.3259164115 13.47543
343 1 1.1882540592 2.3467399319 6.19686
344 1 -1.248881166 4.9896066441 7.40244
345 1 -1.3766441832 9.0373423581 6.64239
346 1 -3.878752878 11.5791313277 6.2862
347 1 -2.4006716042 4.4104373804 9.71859
348 1 5.63809896 9.023600746 6.77442
349 1 0.5209763832 8.6631190693 6.95451
350 1 2.852452746 10.3744086583 7.56765
351 1 3.7592672832 4.823256244 7.91856
352 1 4.3392596832 3.9806523386 10.40499
353 1 2.2763770848 4.0072178018 10.19232
354 1 2.7141925824 7.5269060257 11.3415
355 1 -0.5087535804 10.6540529453 7.52664
356 1 2.0093944104 11.2481792345 9.89643
357 1 -1.44550575 11.1584246796 10.92525
358 1 0.3876210936 7.6032042186 10.10742
359 1 2.1704103252 6.2405646294 12.97011
360 1 -2.730582738 6.7510010282 13.83324
361 1 -0.6616782432 9.8475269728 13.46715
362 3 -4.8061012943 8.5290019273 23.33676
363 3 1.1033388756 10.6791053429 8.39889
364 3 -0.8535053592 3.7484463787 16.3374
365 3 1.0835332092 2.0116703159 18.93966
366 3 11.5624850328 0.5750145344 15.30786
367 3 5.2822772028 4.4669044923 13.47285
368 3 6.9003271116 9.3499392294 10.82808
369 3 6.7341127464 9.1323430339 19.84611
370 3 6.7969882188 11.377843995 18.59616
371 3 5.0535253361 0.2930113534 6.27141
372 2 12.1648322016 2.2910541572 7.13694
373 2 -3.7811079353 7.5996075872 9.99531
374 2 8.2391285808 8.3900479361 7.1355
375 2 10.0666345104 5.661767431 7.14648
376 2 8.4383094276 4.633440925 10.47663
377 1 12.555653994 1.3161066211 7.30749
378 1 9.1229725548 7.8861598868 7.28787
379 1 9.8031031488 6.4585080858 7.80078
380 1 9.1539341244 4.0304718836 10.02516
381 1 9.653436468 7.9476870869 10.57806
382 3 1.5437607588 6.080080459 6.72312
383 2 6.897828132 1.2704294032 9.87225
384 1 6.1328969208 1.9636118801 9.66009
385 2 5.9234122584 2.0553135768 22.65771
386 1 6.8129344296 2.3671043066 23.06457
387 1 -2.5110133682 5.1605334475 19.66998
388 1 5.8319009143 1.0609591141 22.95189
389 2 1.2871678248 4.2824469137 19.79598
390 1 7.3759208796 7.9476002717 22.42851
391 1 1.2042933552 4.2038667203 20.85987
392 1 -2.4290511336 8.1535384208 23.5128
