# LAMMPS data file written by OVITO Basic 3.8.0

392 atoms
3 atom types

0.0 14.3208 xlo xhi
0.0 12.402177 ylo yhi
0.0 30.0 zlo zhi
-7.1604 0.0 0.0 xy xz yz

Atoms  # atomic

1 3 -5.8869964689 10.239993864 3.36801
2 3 4.558990878 10.7490040124 3.192
3 3 6.6890022264 11.2670057392 4.59501
4 3 12.2029971336 2.2699952607 4.56099
5 3 10.1849937743 1.2080005648 3.32799
6 3 8.5429944756 4.2299981072 3.40101
7 3 4.8820036824 4.1369941819 3.32199
8 3 4.9020026796 2.2429957213 4.91901
9 3 6.4589958576 5.0740034586 4.674
10 3 6.7470014664 7.3210050831 3.28299
11 3 8.398003536 2.167999757 4.77501
12 3 8.5460018436 8.3279998446 4.842
13 3 0.9649927872 4.5540049813 3.18399
14 3 10.2649990716 5.7890013648 4.881
15 3 3.1700021652 5.1990050006 4.83201
16 3 3.6309958776 1.3599979255 3.0
17 2 10.2760046064 3.0740035912 4.086
18 2 8.5040053816 0.1459996679 4.128
19 2 12.0110001013 0.1009999809 4.45101
20 2 6.7069963116 3.2409989045 4.11501
21 2 5.0050050336 6.3329980546 4.203
22 2 3.2550032736 3.1500041319 4.13199
23 2 8.2890079272 6.1779956464 4.41099
24 2 4.7160045517 0.0109999993 4.35201
25 2 -5.9224012099 12.3452013989 4.30101
26 2 6.760992888 9.2770020265 4.17201
27 1 5.263001406 0.194999429 3.48801
28 1 1.3660016807 0.906999729 3.93801
29 1 2.2629942972 2.8730015086 3.999
30 1 12.4050049063 0.3870000115 3.53301
31 1 7.7519994084 0.6640001544 3.633
32 1 10.2139955424 3.6419984935 4.95399
33 1 8.7259999788 6.4350059604 3.504
34 1 4.082000832 6.776003817 4.01601
35 1 5.9070006216 9.1340049257 3.60099
36 1 6.5909906712 2.2180053347 3.96801
37 3 -2.4229980179 4.29199659 3.39501
38 3 1.25700822 10.5139951605 3.378
39 3 2.8830061728 11.6069990195 4.75701
40 3 -2.1629993112 10.3359991162 3.30999
41 3 -4.1500031508 11.2750051434 4.404
42 3 -0.4729945428 11.9039939521 4.84101
43 3 1.6709939064 8.2820001701 4.73601
44 3 -0.7190044056 5.3340026972 4.725
45 3 -2.3789927772 8.3569961344 4.848
46 3 4.8060031968 8.329004421 4.992
47 3 -0.5450066856 7.3780054886 3.384
48 2 3.209004864 9.6069991521 4.278
49 2 -0.3830026356 9.3290043546 4.089
50 2 1.1419907148 6.2290058004 4.39101
51 2 -2.2430010283 6.3580008434 4.125
52 2 -0.5209978644 3.4180027747 4.13001
53 2 -4.0579991712 9.4199991273 4.104
54 1 1.6979957748 6.5089973484 3.558
55 1 -3.0080024114 6.8820052238 3.65601
56 1 -0.7030009116 9.5290018609 5.05599
57 1 -0.0529998487 2.4960001321 4.01901
58 1 -4.0690032739 8.4240050968 3.816
59 1 3.3829954236 8.7780004349 3.67101
60 3 -0.345059676 6.9117580465 17.61255
61 2 2.646985068 6.9813342594 19.51008
62 1 3.0602045916 6.9759393124 20.40378
63 3 3.5824268844 11.0357919534 14.49831
64 3 4.5295544736 3.5909759373 17.71578
65 3 1.2169529424 4.1158112636 5.39625
66 3 6.9023893068 2.8797234885 20.11893
67 3 -0.4824749124 7.5170462949 8.07804
68 3 4.8667735116 6.0845948514 11.01258
69 3 1.4581868184 10.1016227752 12.73764
70 3 -1.4188805186 4.0940454429 20.9349
71 3 4.1207672376 7.2960767073 18.1875
72 3 12.24331663 0.1961664738 15.64434
73 3 -0.496268707 3.2687549767 6.44235
74 3 8.7346640628 4.1294412561 12.57792
75 1 9.971250822 2.7649289382 14.41254
76 3 1.400108814 8.2262771889 18.58008
77 2 2.8727481838 1.0431049401 10.30443
78 2 13.5085385448 1.3091738041 10.43529
79 2 1.127376052 0.0203524685 13.18134
80 2 4.560314836 0.1783445455 13.03371
81 2 2.6952748056 3.125695865 13.27476
82 2 8.2152128448 4.0179084783 19.28697
83 2 1.2908912328 1.9044534958 16.60146
84 2 -0.7510142578 3.2237474763 13.43892
85 2 6.4772333964 11.444964577 16.95732
86 1 -0.302903537 1.426808453 11.3355
87 1 2.0638349316 1.5887560802 9.9246
88 1 -2.4526589724 12.3280243837 13.95501
89 1 1.2203677372 0.1401731251 14.18691
90 1 2.741144328 2.4762930729 14.14923
91 1 -1.3548837276 3.9116094193 12.99528
92 1 1.1041623216 2.0046134772 15.56877
93 1 2.8579232916 12.0602365779 16.92216
94 1 -2.6728985556 7.4581855629 16.33125
95 1 11.303426057 1.2252780376 16.98054
96 3 3.0509254292 1.2058004186 12.41157
97 3 2.6566229664 3.3434284844 11.21418
98 3 13.8962355386 0.7413202867 5.31678
99 3 4.7171426328 10.8509127008 5.86662
100 3 -0.6177921516 3.0080984226 16.35939
101 3 3.1916265732 4.9572369621 19.54116
102 3 2.5878544848 4.9786803262 14.12148
103 3 4.7246610528 6.2473486202 6.34449
104 3 1.5242128668 3.5547739826 21.66978
105 3 6.5213629416 11.5967052126 13.69026
106 1 6.2521677036 8.3343249549 23.94063
107 3 4.76578323 8.2891314219 9.76365
108 3 -0.7485768576 4.7086601285 18.48339
109 3 7.6521261492 10.0057911535 17.50308
110 3 6.1658347608 6.8434716599 8.27067
111 3 7.1409165516 6.5069881957 5.78811
112 3 -3.832210278 9.3574301443 11.0517
113 3 6.9902903772 5.3517006038 10.25364
114 3 6.5943560592 3.2415570025 6.4509
115 3 4.979807586 3.9626071711 7.90653
116 3 -4.036818708 11.7048273916 20.60337
117 3 5.0555023225 0.4409432804 6.417
118 3 4.6778606784 9.3662728965 22.32867
119 3 -0.3982542876 11.5977097889 19.74147
120 3 2.8735186428 7.3627632131 12.90054
121 3 8.2947076056 1.7212981458 10.43844
122 1 -3.547691784 7.0068331353 10.70328
123 2 6.4764242712 11.3491329553 6.62364
124 2 6.4475893404 9.3230513097 13.3002
125 2 4.9106596032 10.5443556898 10.73856
126 2 6.5699605764 7.0624320948 10.23336
127 2 8.3178356976 6.2186003739 13.55415
128 2 8.3122649064 7.9316386699 16.31463
129 2 4.9994056008 5.8223012101 13.49937
130 2 1.1449766016 4.2038419159 19.36917
131 2 -0.8238971052 7.2301343322 19.35678
132 2 3.2164373592 9.1745848488 13.56141
133 2 4.8405449664 8.2140610445 16.6389
134 2 7.994801412 10.0877571413 19.44999
135 2 7.6810455727 1.1610198781 20.41539
136 1 7.2721308816 10.5194521183 6.47679
137 1 4.0196623896 10.9836407991 10.38978
138 1 7.4207306628 7.494771985 10.61841
139 1 7.7309907948 6.2152641883 12.63492
140 1 4.2901250184 6.5886813356 13.77693
141 1 7.2639966672 9.7322115311 13.87086
142 1 2.4241462596 9.6595719804 14.04075
143 1 5.8912763832 8.4252701188 16.67886
144 1 7.5638634786 0.6335714131 21.34308
145 1 7.1276332936 0.8400751015 16.53759
146 1 7.3311898608 8.2031967375 16.10721
147 1 0.7328382984 3.449839163 19.90611
148 1 -5.9930839529 10.450694449 20.35272
149 3 -2.6352076421 6.2925173488 6.36825
150 1 -0.9965200284 7.4882980487 20.31042
151 3 5.1644241792 8.6247219293 14.59377
152 3 11.6783653662 0.4474767472 6.28452
153 3 4.6113978456 2.2716571524 10.21581
154 3 -0.2163013632 5.1270847762 14.35767
155 3 -2.3652791791 6.0794975567 19.66461
156 3 6.943977626 0.8976559289 7.83591
157 3 12.7243744992 2.1344394661 19.06017
158 3 2.9558704032 9.4323020869 6.67008
159 2 10.1295815868 2.9844722755 13.41081
160 2 -2.3415152436 8.4025369284 16.32183
161 2 -2.4889622004 10.2614496302 19.51653
162 2 6.0852086568 9.2353555161 23.45646
163 2 10.1180454664 1.0804292917 10.27035
164 1 10.6176724009 0.3106708132 9.82785
165 1 11.0558867328 3.3594272927 13.33968
166 1 -2.565607122 9.5658115223 20.3376
167 1 6.238462698 9.7339106293 24.35487
168 1 -1.3694336604 8.1961150944 16.29033
169 1 1.7995087656 10.4987156784 9.49863
170 1 8.7129036072 1.2993264756 20.52738
171 3 3.0322067116 1.1787165445 8.02818
172 3 8.7307544844 8.4519472016 9.00438
173 3 10.0111843728 4.4563006309 9.17049
174 3 5.291571402 5.8311191579 20.19108
175 3 11.8084641059 0.5252731231 11.49603
176 3 -4.3603184196 11.4172829179 18.12441
177 3 6.678755694 11.6453341486 10.46025
178 2 -6.0114970647 10.6049775309 10.40142
179 2 -4.150043249 9.433083424 13.07985
180 2 -3.91441167 11.1296020202 16.42869
181 2 13.5263299907 0.7142326919 19.94367
182 2 12.0970088928 1.9017994299 16.83309
183 1 7.8778935612 10.0576818621 9.69366
184 1 -4.3577578606 9.7821302935 14.1177
185 1 -0.3761310861 0.8931192125 20.88957
186 1 -3.4301967804 10.8472540586 15.64779
187 1 11.660962014 2.4825313679 16.03062
188 3 6.5423285928 11.428010801 18.99891
189 3 6.4968528924 9.3684184731 11.24058
190 3 3.6214009416 3.471418951 6.09174
191 3 7.9895098764 1.7159528075 14.63097
192 3 0.9159798492 6.2407134555 19.54971
193 3 11.9402247744 2.0489140535 9.55221
194 3 11.427855192 3.66459526 17.51394
195 3 -2.4234302196 10.1563535823 16.974
196 1 8.6317261524 7.3306167703 6.71961
197 3 1.1667012552 1.242673331 18.90225
198 3 3.0075040476 7.3474093179 7.63575
199 3 4.4233943832 3.8507767411 12.79107
200 3 -4.3875365321 9.5771719164 19.65291
201 3 -4.5505917288 11.4982319272 9.5298
202 3 -0.2482295868 7.9369592038 5.56488
203 3 1.4096178252 6.3539949402 10.90809
204 3 -1.9734492024 8.7802948376 9.40386
205 1 0.35193366 2.4853714664 8.07765
206 2 6.5075075676 5.1851145623 7.1865
207 2 4.4920697796 2.3193931317 7.03803
208 2 8.2758685932 2.1365850427 6.98052
209 1 8.5727029752 2.436010802 7.90353
210 1 4.9862089836 2.07698018 8.00208
211 1 7.322869476 5.7638125433 7.49004
212 3 2.7110205252 2.2795573391 17.61783
213 3 4.9157148456 10.6432258448 12.75594
214 3 8.4618027 8.0120295812 19.02135
215 3 1.0816357032 4.6375956543 12.51138
216 3 8.0490342816 6.1942673027 20.06688
217 3 3.291832075 0.5835298692 15.87771
218 2 3.287769264 11.2176946834 16.50999
219 2 -5.0580779184 11.2985320731 22.58028
220 2 9.7978903776 4.9621606264 16.07823
221 1 2.5374810708 11.2864895593 15.75486
222 1 -4.3395532596 10.5838070148 22.71222
223 1 9.7045402428 3.9476005369 15.85173
224 3 -4.1088650775 7.3247629427 12.63498
225 3 9.7028718696 6.9277072461 17.38182
226 2 4.7761514892 4.0253869911 19.93743
227 1 5.2316889768 3.5486845137 20.72652
228 3 3.7476244728 9.1042645052 11.65869
229 3 -5.7325947588 12.0422782256 16.48653
230 3 -0.6182790588 5.3616719541 9.92685
231 3 -0.5051590596 9.0754046393 11.16513
232 3 -2.6659887696 12.2106129741 10.99635
233 3 -3.5583192497 6.9987965246 8.45583
234 3 10.5109946136 2.7109174574 6.2088
235 3 1.1295387792 6.4269817519 6.53025
236 3 6.7804405344 8.8490773113 20.36316
237 3 -4.7639258222 9.2064832481 16.25544
238 3 7.6549903092 10.1451668187 23.08953
239 3 1.5032042532 4.3895893208 17.06739
240 3 6.6652655004 5.0289215452 14.13705
241 3 8.1999755136 8.1256087182 13.8792
242 3 6.2147760948 2.8329920856 16.04436
243 3 0.8665229664 2.0859965627 13.50027
244 3 5.1007610628 1.8434471871 14.11062
245 3 -1.0674581112 7.2372903883 12.27873
246 3 11.8083516876 4.1703188315 8.14815
247 2 6.6611267892 2.907157104 13.67679
248 2 6.5119112136 6.8729640368 19.42563
249 2 6.352742682 5.1317355925 16.63287
250 2 1.3766728248 10.3399430084 10.42425
251 2 -0.4924708308 5.2395849237 16.51773
252 2 9.9822706776 7.0019218732 19.53825
253 2 1.1348016732 8.3078339048 16.68801
254 2 4.4325811764 2.2362241327 16.23615
255 2 11.6244010116 4.1282010384 19.37637
256 2 1.2423580416 10.3811182361 19.25307
257 2 7.870389462 1.6474927905 16.68723
258 2 2.864840238 0.7199339727 19.30614
259 2 1.04022711 12.2702798476 13.49022
260 2 -0.3669848208 3.6664803909 22.42716
261 2 3.0934932912 5.0223111849 16.08423
262 1 7.5273132168 3.4346837027 13.73694
263 1 1.55953512 9.3749048117 10.4007
264 1 5.0778191412 1.4621298531 16.7397
265 1 5.4177949332 5.4150013152 17.03475
266 1 0.3930629976 8.9898420202 16.30635
267 1 3.3628245768 5.8803930071 16.59999
268 1 1.8062252208 11.2101293555 18.98256
269 1 8.6991828487 1.005248535 16.79958
270 1 -0.63459045 2.9440907871 23.03061
271 1 3.8811745253 0.7178975352 19.13733
272 1 5.6855151288 7.4915598212 19.25388
273 1 -3.7538124905 7.0674053678 20.38587
274 1 11.1926503728 3.223797085 19.53876
275 1 12.5565955866 0.4384355602 20.30451
276 1 1.0583142804 11.4038637624 13.93551
277 3 8.3132029188 10.3187972967 12.29193
278 1 -0.2207458235 1.0316812948 9.57981
279 3 -0.7531093908 9.2817768646 19.37112
280 3 2.8531902672 3.2742739454 15.55353
281 3 1.4765174424 6.1809721689 15.69102
282 3 10.1519549726 1.1292479811 13.54671
283 3 2.9852924868 8.4309131094 15.71244
284 3 8.5101640416 4.2484897531 6.65133
285 3 10.0080695988 5.1106022829 19.3368
286 3 8.1697371444 5.9974075471 15.34671
287 3 0.4443099804 10.2069048558 5.94579
288 3 2.9299569156 5.5880860974 9.43719
289 3 4.9411843884 6.533355224 15.63816
290 3 8.1824683356 2.0194836874 18.79815
291 3 6.0905932776 6.8858126922 12.58716
292 3 -2.4284210184 8.5031061817 14.07591
293 3 4.8179324232 10.6681046119 8.08788
294 3 6.4913250636 4.6820326545 19.13139
295 1 -2.3774003042 5.384715199 12.99576
296 3 -0.2161509948 11.1262286281 10.33041
297 3 1.3220321704 0.02483846 11.24775
298 3 1.730346462 10.1060007437 17.36979
299 3 10.3414077 3.0802294841 10.96473
300 3 -0.87088365 3.3089504323 11.26347
301 1 0.8748075492 6.853430608 12.9402
302 3 -0.381004884 0.9103470766 16.93935
303 3 6.4254279024 3.5809549783 11.47944
304 3 4.7006665524 10.1371550123 17.05458
305 3 6.971866668 6.7668014017 17.4504
306 3 2.5619481576 1.2732074908 5.18217
307 3 8.5331797153 0.2616574097 6.32046
308 1 -1.0704225168 5.8171171001 7.83795
309 3 2.1109654004 0.8532809396 21.55095
310 1 -0.5693735268 9.8952877565 13.92831
311 3 4.817194902 4.491411194 15.02784
312 3 1.924500708 11.9867536792 11.34096
313 3 -5.6010997411 11.8785694892 6.28509
314 3 -2.4992230536 8.085376056 18.56568
315 3 0.1883972844 7.7791290993 14.59539
316 3 3.377668086 2.5192914205 20.21604
317 3 6.7758363972 3.2146566806 9.48183
318 3 8.1037827 4.380424112 17.37855
319 3 -4.1892349824 11.517976193 13.47672
320 3 10.0328374224 1.2783419921 7.87935
321 1 6.39620631 11.702607402 7.63566
322 3 5.9981081191 1.1659311402 11.95725
323 3 -4.0129301815 9.4296852275 6.59076
324 2 3.0215670732 5.1657671662 6.97329
325 2 3.304202382 7.3532135368 10.63116
326 2 1.354604472 8.1958298443 7.03332
327 2 -0.6198615072 5.0143241829 7.3119
328 2 4.7702369988 8.2570593922 7.45641
329 2 1.0149652188 2.3577654673 7.39467
330 2 1.5199524288 4.5679698326 10.20549
331 2 5.0581853244 4.121727102 10.26207
332 2 2.9914504308 11.6772077435 6.87651
333 2 -0.4873225032 7.4312356323 10.10211
334 2 -2.2725820728 8.3347342267 7.38372
335 2 -0.6073522884 9.0968356012 13.23615
336 2 -2.4807277404 10.6394927895 10.19985
337 2 4.5663517692 12.2188852261 13.45395
338 2 -0.491704668 11.4883597943 6.94278
339 2 -3.8794617576 11.6302655035 6.93891
340 2 11.8431011088 4.0407036797 10.32813
341 2 -2.3869665986 6.2969821326 13.4544
342 2 1.1828551176 6.0894937114 13.59771
343 1 0.798993234 1.3249865798 7.37346
344 1 0.1011979332 4.8104944039 7.96668
345 1 -1.3211940456 8.9890730852 7.19706
346 1 -4.6343755692 11.4544150358 7.61604
347 1 11.3596094196 4.8106928387 10.78611
348 1 5.4132838812 9.1819889485 7.35909
349 1 1.0914740928 8.9450205525 7.77351
350 1 2.2728112056 11.1216770291 7.36005
351 1 1.8745783992 5.1880538783 7.18425
352 1 5.202173808 4.8703845166 9.55428
353 1 0.6308885232 4.0575706404 10.12971
354 1 2.6463334716 8.1249514028 10.33878
355 1 0.008807292 10.9888001047 7.74939
356 1 11.8952395614 0.8337053434 13.46448
357 1 -2.3819929848 10.2316223945 11.17902
358 1 0.3405199824 8.0201902137 10.00035
359 1 6.3954401472 10.8591725507 16.05576
360 1 -1.9973649384 6.141533246 14.4186
361 1 -1.511982474 2.39845701 13.34271
362 3 -2.3575831812 10.5849976238 5.84697
363 3 -1.8678905856 10.7541757202 12.89193
364 3 2.6736861996 3.7312073526 8.44812
365 1 -4.8814093692 11.819485518 23.41752
366 1 7.1277414156 0.1849288612 13.67883
367 1 10.779409368 5.0760126113 15.80397
368 3 2.648560356 9.0070562419 20.13255
369 1 8.8315156332 4.2334707168 20.09355
370 1 1.2788617608 10.5655138037 20.36109
371 3 9.7314633468 5.3961500062 14.13912
372 2 11.9270281572 2.1238852134 7.3134
373 2 10.0023484392 7.4435882006 10.21134
374 2 8.512319322 8.386463707 6.97779
375 2 10.301739084 5.3070155601 7.16313
376 2 8.34687828 3.9014520363 10.85241
377 1 12.8586248388 1.9880565709 7.60773
378 1 7.4755506852 8.5526776831 7.18308
379 1 9.419828418 5.6933309714 7.54071
380 1 8.8306563852 4.8090061426 10.68399
381 1 9.1826688096 6.9547936006 10.48773
382 3 -2.4391472976 10.8926584286 8.1336
383 2 6.408397607 1.2105318491 10.12167
384 1 5.8784714399 0.638492597 9.37923
385 2 4.4336767176 9.7448121429 20.51904
386 1 4.6610480592 8.996340761 19.76739
387 1 -0.7752851496 4.5575023953 22.78854
388 1 5.3317913688 10.3771495394 20.31666
389 2 2.9172400452 2.364264208 22.66293
390 1 -1.1907100764 5.9348509663 16.20684
391 1 3.8457291132 2.8261956926 22.72215
392 1 2.4179167116 2.9052471688 23.37813
