Li2NH_392_20NH2_2NH3.0.lmp (written by ASE) 

392 	 atoms 
3  atom types
0.0      14.320800000000002  xlo xhi
0.0               12.402177  ylo yhi
0.0                      30  zlo zhi
    -7.1604000000000001                       0                       0  xy xz yz


Atoms 

     1   3     -5.8869999999999996                   10.24      3.3679999999999999
     2   3      4.5590000000000002      10.749000000000001      3.1920000000000002
     3   3      6.6890000000000001      11.266999999999999      4.5949999999999998
     4   3      12.202999999999999                    2.27      4.5609999999999999
     5   3                  10.185                   1.208      3.3279999999999998
     6   3      8.5429999999999993      4.2300000000000004      3.4009999999999998
     7   3      4.8819999999999997      4.1369999999999996      3.3220000000000001
     8   3      4.9020000000000001      2.2429999999999999      4.9189999999999996
     9   3      6.4589999999999996      5.0739999999999998      4.6740000000000004
    10   3      6.7469999999999999      7.3209999999999997      3.2829999999999999
    11   3      8.3979999999999997      2.1680000000000001      4.7750000000000004
    12   3      8.5459999999999994      8.3279999999999994      4.8419999999999996
    13   3     0.96499999999999997      4.5540000000000003      3.1840000000000002
    14   3      10.265000000000001      5.7889999999999997      4.8810000000000002
    15   3      3.1699999999999999      5.1989999999999998      4.8319999999999999
    16   3      3.6309999999999998      1.3600000000000001                       3
    17   2                  10.276      3.0739999999999998      4.0860000000000003
    18   2      8.5039999999999996     0.14599999999999999      4.1280000000000001
    19   2      12.010999999999999     0.10100000000000001      4.4509999999999996
    20   2      6.7069999999999999      3.2410000000000001      4.1150000000000002
    21   2      5.0049999999999999      6.3330000000000002      4.2030000000000003
    22   2      3.2549999999999999      3.1499999999999999      4.1319999999999997
    23   2      8.2889999999999997      6.1779999999999999      4.4109999999999996
    24   2      4.7160000000000002    0.010999999999999999      4.3520000000000003
    25   2     -5.9223999999999997                 12.3452      4.3010000000000002
    26   2      6.7610000000000001      9.2769999999999992      4.1719999999999997
    27   1      5.2629999999999999     0.19500000000000001                   3.488
    28   1      1.3660000000000001     0.90700000000000003      3.9380000000000002
    29   1      2.2629999999999999      2.8730000000000002      3.9990000000000001
    30   1      12.404999999999999     0.38700000000000001      3.5329999999999999
    31   1      7.7519999999999998     0.66400000000000003                   3.633
    32   1                  10.214      3.6419999999999999      4.9539999999999997
    33   1      8.7260000000000009      6.4349999999999996                   3.504
    34   1      4.0819999999999999      6.7759999999999998                   4.016
    35   1                   5.907      9.1340000000000003                   3.601
    36   1      6.5910000000000002                   2.218                   3.968
    37   3                  -2.423      4.2919999999999998                   3.395
    38   3      1.2569999999999999      10.513999999999999      3.3780000000000001
    39   3                   2.883      11.606999999999999      4.7569999999999997
    40   3     -2.1629999999999998                  10.336      3.3100000000000001
    41   3     -4.1500000000000004                  11.275      4.4039999999999999
    42   3    -0.47299999999999998                  11.904      4.8410000000000002
    43   3                   1.671                   8.282      4.7359999999999998
    44   3    -0.71899999999999997      5.3339999999999996      4.7249999999999996
    45   3                  -2.379      8.3569999999999993      4.8479999999999999
    46   3                   4.806      8.3290000000000006                   4.992
    47   3    -0.54500000000000004      7.3780000000000001      3.3839999999999999
    48   2      3.2090000000000001      9.6069999999999993      4.2779999999999996
    49   2    -0.38300000000000001      9.3290000000000006      4.0890000000000004
    50   2      1.1419999999999999      6.2290000000000001                   4.391
    51   2     -2.2429999999999999      6.3579999999999997                   4.125
    52   2    -0.52100000000000002      3.4180000000000001      4.1299999999999999
    53   2     -4.0579999999999998      9.4199999999999999      4.1040000000000001
    54   1                   1.698      6.5090000000000003      3.5579999999999998
    55   1                  -3.008      6.8819999999999997      3.6560000000000001
    56   1    -0.70299999999999996      9.5289999999999999                   5.056
    57   1   -0.052999999999999999                   2.496      4.0190000000000001
    58   1                  -4.069      8.4239999999999995      3.8159999999999998
    59   1                   3.383      8.7780000000000005      3.6709999999999998
    60   3      6.6942199999999996      4.9462200000000003                  19.119
    61   2    -0.56721500000000002                  6.8956      19.457799999999999
    62   1     0.22970499999999999                 7.11538      20.157800000000002
    63   3     -3.8040099999999999      9.9043100000000006      6.2568099999999998
    64   3      3.1252200000000001      6.7034599999999998      12.441700000000001
    65   3      4.1455000000000002      7.7590300000000001      14.280799999999999
    66   3     -4.5382800000000003                 11.7019      9.4000800000000009
    67   3      3.1478199999999998      7.1415800000000003      17.412800000000001
    68   3                 1.19126      12.322100000000001                 10.7254
    69   3      5.0375399999999999      12.085800000000001                 19.9468
    70   3                 1.23081                0.442579      11.225300000000001
    71   3      5.5100899999999999      9.7142999999999997      14.719099999999999
    72   3                -0.26404      8.3955699999999993      18.075700000000001
    73   3      1.3459099999999999                 1.89012                 18.7485
    74   3      10.383599999999999      1.3757200000000001                 8.29298
    75   1      1.2062597527709857      11.052051636440304      11.608859594917801
    76   3      8.4734300000000005                 1.91788      14.850199999999999
    77   2      3.2138100000000001      1.1264799999999999      10.321300000000001
    78   2               -0.412381      1.2535000000000001      10.352600000000001
    79   2                 1.28406               0.0309603      13.372400000000001
    80   2     -2.3283900000000002      12.152200000000001      13.534800000000001
    81   2      2.9549799999999999      2.9033600000000002                 13.6198
    82   2    -0.38531300000000002     0.92552100000000004      19.399100000000001
    83   2                 1.47827      1.7113400000000001                 16.7334
    84   2    -0.38866099999999998      3.2413799999999999      13.248200000000001
    85   2    -0.51987300000000003      4.6825999999999999                 16.4329
    86   1    -0.62551900000000005      1.7845200000000001      9.5280500000000004
    87   1      3.0338099999999999                 1.92526      9.8245299999999993
    88   1      4.3356300000000001     0.52462699999999995                 14.0929
    89   1      2.0095299999999998     0.44678600000000002                 13.9588
    90   1      3.8239000000000001      2.4091300000000002      13.423299999999999
    91   1     -1.3086599999999999      3.0656300000000001      13.537699999999999
    92   1      1.8130500000000001                 1.89286                 15.7293
    93   1                -1.13364      4.3527800000000001                 17.0748
    94   1     0.30569299999999999     0.48179899999999998      20.138500000000001
    95   1      8.4433233728102675      10.804549080738669      18.781087469709131
    96   3      2.9691999999999998      1.1543600000000001      7.5995799999999996
    97   3    -0.33112999999999998      2.8849300000000002      20.418700000000001
    98   3      1.7494700000000001      8.0239100000000008      19.223099999999999
    99   3                 2.93397      3.0865800000000001                 11.0528
   100   3    -0.54236200000000001                 1.19685                 13.0113
   101   3     -3.8514599999999999      11.030799999999999      19.628399999999999
   102   3      4.7260600000000004      6.4905400000000002      6.2811700000000004
   103   3               -0.730742                 11.3847                 9.42483
   104   3      8.9277499999999996     0.41002699999999997      6.2416499999999999
   105   3                -4.14649      8.8789400000000001                 20.0273
   106   1      9.5059235938051678      3.6262077850264305      14.295086360657177
   107   3      5.1329599999999997      9.5884599999999995      17.484200000000001
   108   3                -0.10367      3.1941199999999998                  11.064
   109   3    -0.68880699999999995      8.2406600000000001      8.2619600000000002
   110   3      2.9656699999999998      7.3833200000000003      7.0007400000000004
   111   3               -0.399646                 5.03878      14.382899999999999
   112   3      6.5420199999999999                 11.2463      18.372499999999999
   113   3               -0.320801      8.3804400000000001                 15.7372
   114   3               -0.236341      1.1666799999999999                 17.2163
   115   3     0.86284099999999997                 10.3803                 15.2813
   116   3    -0.45918199999999998      6.5038999999999998      17.491099999999999
   117   3      4.8243099999999997                  10.558      8.2863399999999992
   118   3      10.281599999999999     0.92841200000000002      17.251200000000001
   119   3      8.5558599999999991                 1.13689      19.055700000000002
   120   3      3.0358100000000001      4.4494300000000004                 14.6455
   121   3     -5.6369499999999997      12.187099999999999                 16.2178
   122   1     -4.2586860863012124      7.9003029840606631      11.282449884318263
   123   2                 6.41805      11.164099999999999      7.2122299999999999
   124   2      6.8274999999999997      9.6803600000000003                 13.2242
   125   2      4.7141400000000004      10.340299999999999                 10.6838
   126   2      6.4831300000000001      7.1641700000000004      10.712300000000001
   127   2      8.3793399999999991      6.2337400000000001                 13.7613
   128   2      8.3809400000000007      8.0816400000000002                 16.9267
   129   2      4.5845099999999999      6.0987999999999998                 13.4284
   130   2      6.8011299999999997      11.053800000000001      16.437999999999999
   131   2      2.6896900000000001                 11.1134      16.449999999999999
   132   2      3.3253599999999999      9.2334099999999992                 13.8309
   133   2      4.7070400000000001      8.0941299999999998      16.319500000000001
   134   2      4.9544899999999998                  10.169                 19.3383
   135   2                 1.27976      7.8133100000000004                  16.823
   136   1      5.9674500000000004      12.033200000000001      7.2738699999999996
   137   1      5.5421399999999998      10.491300000000001      9.9362600000000008
   138   1      7.3346099999999996      7.7282099999999998      10.550700000000001
   139   1      7.5851899999999999      5.7710600000000003                 13.2506
   140   1      5.5195499999999997      6.0904999999999996      13.153499999999999
   141   1      7.5004600000000003                 8.87852                 13.1599
   142   1      2.9343499999999998      9.7944300000000002                 12.9133
   143   1      5.0144399999999996      7.1255499999999996      16.269300000000001
   144   1      1.6003099999999999                 7.71495      15.820399999999999
   145   1                 3.58508      11.593299999999999                 16.0914
   146   1                 7.34138                 8.02393      16.507000000000001
   147   1      6.8639700000000001      9.9827300000000001      16.401800000000001
   148   1      5.1679300000000001                 10.1473      20.392399999999999
   149   3      7.3307599999999997      4.6864299999999997                 14.5497
   150   1      1.8263894087238493      11.705333569480192      16.704848897436669
   151   3      6.7995900000000002      6.5469999999999997                 17.4084
   152   3      8.5890199999999997      5.7842399999999996                 15.9687
   153   3      7.8634300000000001     0.45060800000000001      8.8744700000000005
   154   3      4.8549699999999998      5.4727399999999999                 15.3095
   155   3                 1.14581                 2.28146                 13.9268
   156   3                 11.5959                 1.76414      14.628399999999999
   157   3               -0.457061      7.3215500000000002                 13.2689
   158   3      5.0303800000000001     0.66373300000000002      20.368400000000001
   159   2      12.029400000000001    0.051596099999999999                 13.5938
   160   2      11.922000000000001      1.7129799999999999      16.560400000000001
   161   2      8.1519200000000005                0.140461      13.232699999999999
   162   2      9.9723000000000006                 2.82755                 13.7173
   163   2                 10.2014      1.0879700000000001      10.281499999999999
   164   1      9.7785600000000006                 1.77399                 10.9282
   165   1      4.4409700000000001                  11.554      13.865600000000001
   166   1     0.21210799999999999      12.290800000000001                  13.831
   167   1      10.500999999999999      3.0608300000000002                 12.7925
   168   1      12.377700000000001      2.5937399999999999      16.972799999999999
   169   1      9.3658799078745059      2.9348179942456092      17.035009821988808
   170   1      1.2046672587162379      8.7719550654880472      17.262311359654984
   171   3     -2.0790099999999998      5.8957300000000004                 20.3474
   172   3     -5.9364299999999997                 11.7651      6.3320999999999996
   173   3      6.2701200000000004     0.59123899999999996      18.023599999999998
   174   3                 7.83596      9.9736899999999995      8.0928400000000007
   175   3      6.6875499999999999      1.2133499999999999      6.8756199999999996
   176   3     0.83475999999999995      6.6723400000000002      8.6607099999999999
   177   3      2.7622800000000001      5.0501300000000002      18.639600000000002
   178   2                -5.87547      10.531599999999999      10.486800000000001
   179   2     -4.1322900000000002      9.0999400000000001                 14.1069
   180   2     -4.0795599999999999                 11.0008                 16.9373
   181   2     -2.1979700000000002      7.8774300000000004      16.889600000000002
   182   2      8.4393799999999999      10.031499999999999      19.456600000000002
   183   1      7.7460100000000001      11.253500000000001      10.216100000000001
   184   1     -4.7983599999999997      8.9512599999999996      13.357799999999999
   185   1     -2.2625000000000002                 7.21129      17.777200000000001
   186   1     -3.1265299999999998                 11.4457      16.833300000000001
   187   1      8.1432800000000007      10.197900000000001                 20.4254
   188   3      5.0149100000000004      4.5703800000000001      7.6192000000000002
   189   3                 6.61754      2.7718400000000001      16.013999999999999
   190   3      6.7613599999999998      9.6443100000000008                 11.3218
   191   3                -3.92469                 11.0403      14.654999999999999
   192   3                 1.15957      3.6952699999999998      17.370999999999999
   193   3      8.2348800000000004                 10.0976      14.864699999999999
   194   3     -2.3550599999999999      8.1473099999999992                 10.4397
   195   3     -2.4511599999999998      6.3419999999999996      6.2217000000000002
   196   1      4.8765348259930903      9.4821713740507363      6.5450090751242662
   197   3     -2.4731399999999999      8.0558399999999999                  19.334
   198   3      3.6917399999999998      11.187200000000001      18.344200000000001
   199   3      11.293900000000001     0.59241999999999995                 6.35982
   200   3      5.0916800000000002      9.9354099999999992                 12.5709
   201   3      6.4769100000000002      7.1513600000000004      8.0641099999999994
   202   3     -5.8668199999999997      10.642799999999999      12.384600000000001
   203   3      3.3838300000000001                 11.6332      10.164400000000001
   204   3                -2.61517                 10.2667      12.984299999999999
   205   1      1.9608766203144701      3.0790571192371274       6.828655552485797
   206   2      6.7986500000000003      5.4441499999999996      7.2611100000000004
   207   2      4.8777499999999998      2.4678100000000001                 7.20092
   208   2                 8.50732      2.2820299999999998      7.2030799999999999
   209   1      8.9148399999999999                 2.98889      7.8188899999999997
   210   1      4.8095299999999996      2.6752099999999999      8.2797599999999996
   211   1                 7.09382      4.5470499999999996                 7.59178
   212   3      4.5379399999999999      4.2109500000000004                 12.7043
   213   3     -2.8048799999999998      5.9914300000000003                 11.6797
   214   3      3.1362700000000001      5.1644100000000002      9.8987999999999996
   215   3      11.277200000000001                 4.52881      18.392600000000002
   216   3                 1.23543      5.8546399999999998      16.306899999999999
   217   3      6.7433199999999998      5.4266199999999998      9.6183499999999995
   218   2    -0.58476700000000004      11.022600000000001      16.947199999999999
   219   2                 1.14177      9.5898900000000005                 19.8429
   220   2     -2.2913999999999999      9.8034400000000002                 19.8065
   221   1                -1.05948      10.310499999999999                 16.4665
   222   1                 1.01484      9.4110300000000002      20.839400000000001
   223   1                -2.28362      10.406700000000001      20.781099999999999
   224   3     -2.7663700000000002      10.178599999999999      8.5102799999999998
   225   3      8.9222199999999994      7.6612799999999996                 15.0344
   226   2                 -2.1751      3.8054399999999999      19.882100000000001
   227   1     -1.9896400000000001      3.6260699999999999      20.825099999999999
   228   3                 1.08185                 3.90985                 5.40076
   229   3      6.9405599999999996      11.667299999999999      14.170999999999999
   230   3                 10.0436      5.1699000000000002      10.151300000000001
   231   3      2.5036299999999998                 11.6218                 14.1686
   232   3    -0.58137099999999997      9.0439799999999995                 11.1595
   233   3     -2.2712599999999998      12.246499999999999                 10.9777
   234   3    -0.59949300000000005      3.0899200000000002                    15.4
   235   3      2.9489399999999999      9.3874700000000004                 6.61449
   236   3     -4.1169399999999996      9.1099200000000007      16.020099999999999
   237   3      8.8013399999999997      3.7238899999999999      17.927900000000001
   238   3      13.561299999999999     0.46179700000000001      5.4628300000000003
   239   3      6.4487100000000002      3.8269500000000001      11.924300000000001
   240   3     -2.7049500000000002      6.5280100000000001      8.6287099999999999
   241   3     -2.3680300000000001      6.1489000000000003      16.032699999999998
   242   3                 5.70913      1.1393200000000001      8.5236499999999999
   243   3      3.2448999999999999                 2.75841      20.675999999999998
   244   3                 6.87453                 3.38578      6.2780500000000004
   245   3      3.1329799999999999                0.900586      12.551600000000001
   246   3     0.91164900000000004                 4.35006      7.9347000000000003
   247   2                 6.79352      3.0699100000000001      13.701700000000001
   248   2      10.094799999999999      4.9886900000000001      16.496400000000001
   249   2      6.6297100000000002      4.8279699999999997      16.477699999999999
   250   2      8.7756799999999995      2.0025200000000001                 16.8414
   251   2                 10.3378     0.48174800000000001                 19.7164
   252   2      8.3931000000000004      4.1156499999999996      19.926200000000001
   253   2      6.7972799999999998     0.43604500000000002                 19.8249
   254   2      5.0674799999999998      1.9710399999999999      17.204999999999998
   255   2      10.241199999999999      6.8936799999999998      19.892199999999999
   256   2                 4.90299      3.6390500000000001      19.905799999999999
   257   2      1.4090400000000001      3.7001900000000001      19.306000000000001
   258   2                 3.08501     0.70753299999999997      19.723199999999999
   259   2      6.5879500000000002      6.8107600000000001                 19.4436
   260   2                 3.34348      6.8997099999999998      19.468599999999999
   261   2      3.2412800000000002      4.9500400000000004      16.415700000000001
   262   1      5.7846900000000003                 2.97262      14.087300000000001
   263   1                 7.70627      1.9384399999999999      17.168900000000001
   264   1      4.9223400000000002                 1.20766      16.430099999999999
   265   1      6.9152500000000003      4.2484999999999999      17.292400000000001
   266   1      7.0267999999999997     0.37716499999999997                 20.8584
   267   1      3.0622199999999999      5.7685899999999997                 15.8512
   268   1      5.4280099999999996      4.0884099999999997                 20.6401
   269   1      1.8391299999999999      4.3459099999999999      20.000499999999999
   270   1      2.7044299999999999      6.7469799999999998      20.218900000000001
   271   1                  2.5385     0.43218000000000001                  20.587
   272   1                  11.023      4.6037499999999998      16.255400000000002
   273   1      8.0008400000000002      3.6454499999999999                 20.8307
   274   1     -3.9850099999999999                 6.95228      20.944900000000001
   275   1                 10.1357     0.29188500000000001      20.734999999999999
   276   1      6.7861500000000001      7.0285299999999999      20.436199999999999
   277   3    -0.49922499999999997      4.8601900000000002      19.012899999999998
   278   1     -0.7656888099176129      1.5482450125789744      11.244559482798991
   279   3      4.0052899999999996      2.4683199999999998      18.693899999999999
   280   3                 10.0129                 4.83934                 20.7713
   281   3      4.8372400000000004      8.3224099999999996                 10.0381
   282   3                 3.70627      8.9796099999999992      20.202100000000002
   283   3                 12.2972      1.8666799999999999      18.685300000000002
   284   3      6.2161600000000004      7.6393300000000002                 12.5688
   285   3                -2.08284                 3.75305                 12.3887
   286   3                 1.62948      8.7880599999999998      9.3663699999999999
   287   3      5.5659599999999996      12.325799999999999                 11.1785
   288   3     -4.3027499999999996      7.6002200000000002      7.3515100000000002
   289   3      5.0478199999999998                 4.06576                 17.2073
   290   3      2.9912299999999998      9.2781099999999999                 10.7982
   291   3                 10.0603      6.8936900000000003      17.316400000000002
   292   3      5.0811900000000003      5.9896099999999999                 11.2608
   293   3                 10.1174      2.5274100000000002      6.1796499999999996
   294   3                 -2.6214      8.0810499999999994                 14.6572
   295   1      9.1771076338229829      6.6551571191109371      13.221359346738261
   296   3      8.6725700000000003      5.2585899999999999                 6.41432
   297   3      8.3858099999999993      6.2782299999999998      19.879300000000001
   298   3                  1.5201      8.4767100000000006      13.642300000000001
   299   3      8.5041899999999995      6.4117499999999996      11.115600000000001
   300   3                  6.2866      1.0304199999999999      13.371700000000001
   301   1      1.0773557144968522      7.0534416916997404      12.634966427500634
   302   3      8.7870600000000003      8.0666499999999992      18.900300000000001
   303   3                -1.59714                 11.9221      15.430400000000001
   304   3      7.6739100000000002      2.7211799999999999      9.6702600000000007
   305   3      8.0029800000000009                 2.27691                 12.6591
   306   3      2.5619499999999999                 1.27321      5.1821700000000002
   307   3    -0.83241600000000004      3.2261799999999998                 6.41038
   308   1     -1.1911861497015246      5.0426985865675142      8.0677546352053096
   309   3    -0.51263400000000003      10.802199999999999      19.286799999999999
   310   1       3.035007427968853      9.5821631264315403      14.881465876667962
   311   3                 3.58528      2.8315000000000001                 16.0336
   312   3      7.1108000000000002      6.9204299999999996      5.9397900000000003
   313   3      9.9444599999999994      1.0208200000000001      12.854699999999999
   314   3                 11.5784      4.0891799999999998      7.6326099999999997
   315   3    0.056765000000000003     0.51037299999999997      8.3557400000000008
   316   3      10.358599999999999      2.4817800000000001      19.966699999999999
   317   3      5.2014399999999998                 12.2011      15.568300000000001
   318   3      3.3786800000000001     0.55307899999999999                 17.7346
   319   3                 1.48447                 4.14154                 12.4688
   320   3                  1.5969      2.5529999999999999                 9.14602
   321   1       5.890687321570943      10.345523786851667      7.0939242593621614
   322   3      1.1585399999999999                 10.6379      7.5255299999999998
   323   3      5.0176499999999997      2.1341600000000001                 10.6503
   324   2      2.8365900000000002      5.4416000000000002      6.9390299999999998
   325   2      3.0013399999999999      7.1614699999999996      10.409599999999999
   326   2      1.2793699999999999      8.5126100000000005      7.5977699999999997
   327   2    -0.61872799999999994      5.3261599999999998      7.3091900000000001
   328   2      4.6402900000000002      8.5615699999999997      6.9834399999999999
   329   2                 1.22044      2.4504999999999999      7.1676200000000003
   330   2                 1.39452      4.1583899999999998                  10.052
   331   2      4.7373900000000004      4.1543099999999997                 10.7866
   332   2                 3.26709                 11.4612      6.9432200000000002
   333   2    -0.64766000000000001      7.3665799999999999      9.9682499999999994
   334   2     -2.6332399999999998      8.4645899999999994      7.1768299999999998
   335   2    -0.40394999999999998      9.2328399999999995                 13.6412
   336   2                -2.19163                 10.2789      10.297800000000001
   337   2                 1.32301      10.276999999999999      10.724500000000001
   338   2               -0.495197                 11.8316      7.5560499999999999
   339   2     -4.1037299999999997      11.621700000000001      7.0185399999999998
   340   2     -2.4698000000000002      4.4541000000000004                 10.7218
   341   2                -2.56087                 6.33162      13.491899999999999
   342   2                  1.0246      6.0593399999999997      13.004799999999999
   343   1                0.639575      1.9308799999999999      6.4961900000000004
   344   1    -0.86127100000000001      6.1272099999999998      6.7772399999999999
   345   1     -1.7727299999999999      8.7672899999999991      6.7475199999999997
   346   1     -4.6294700000000004      10.985799999999999      7.5805199999999999
   347   1                 11.6755      3.5948600000000002                  10.065
   348   1      4.2213900000000004      8.5306300000000004      7.9421400000000002
   349   1     0.62871500000000002      8.6017700000000001      6.8181099999999999
   350   1                 2.93655                 11.0313      7.9358000000000004
   351   1      3.1867899999999998      5.1197600000000003                 7.87697
   352   1                 4.58596      3.6933500000000001                 9.85656
   353   1                 1.18235      4.8947099999999999      10.734500000000001
   354   1      3.2499799999999999      7.0230499999999996      9.4819200000000006
   355   1    -0.72639200000000004      10.787000000000001      7.3219700000000003
   356   1      1.0214799999999999      10.585900000000001      9.6244599999999991
   357   1     -3.0257999999999998      10.095700000000001                  10.946
   358   1    -0.84390500000000002      6.7756400000000001      10.825200000000001